
                                 *****************
                                 * O   R   C   A *
                                 *****************

                                            #,                                       
                                            ###                                      
                                            ####                                     
                                            #####                                    
                                            ######                                   
                                           ########,                                 
                                     ,,################,,,,,                         
                               ,,#################################,,                 
                          ,,##########################################,,             
                       ,#########################################, ''#####,          
                    ,#############################################,,   '####,        
                  ,##################################################,,,,####,       
                ,###########''''           ''''###############################       
              ,#####''   ,,,,##########,,,,          '''####'''          '####       
            ,##' ,,,,###########################,,,                        '##       
           ' ,,###''''                  '''############,,,                           
         ,,##''                                '''############,,,,        ,,,,,,###''
      ,#''                                            '''#######################'''  
     '                                                          ''''####''''         
             ,#######,   #######,   ,#######,      ##                                
            ,#'     '#,  ##    ##  ,#'     '#,    #''#        ,####,    ,#,          
            ##       ##  ##   ,#'  ##            #'  '#       #'       ,# #          
            ##       ##  #######   ##           ,######,      #####,      #          
            '#,     ,#'  ##    ##  '#,     ,#' ,#      #,     #,   #      #          
             '#######'   ##     ##  '#######'  #'      '#     '####' #    #          



                #########################################################
                #                        -***-                          #
                #          Department of theory and spectroscopy        #
                #                                                       #
                #                      Frank Neese                      #
                #                                                       #
                #     Directorship, Architecture, Infrastructure        #
                #                    SHARK, DRIVERS                     #
                #        Core code/Algorithms in most modules           #
                #                                                       #
                #        Max Planck Institute fuer Kohlenforschung      #
                #                Kaiser Wilhelm Platz 1                 #
                #                 D-45470 Muelheim/Ruhr                 #
                #                      Germany                          #
                #                                                       #
                #                  All rights reserved                  #
                #                        -***-                          #
                #########################################################


                         Program Version 6.1.0  -  RELEASE   -
                                (GIT: $679e74b7b5$)
                          ($2025-06-10 18:02:51 +0200$)


 With contributions from (in alphabetic order):
[Max-Planck-Institut fuer Kohlenforschung]                               
  Daniel Aravena         : Magnetic Suceptibility                        
  Michael Atanasov       : Ab Initio Ligand Field Theory (pilot matlab implementation)
  Alexander A. Auer      : GIAO ZORA, VPT2 properties, NMR spectrum      
  Ute Becker             : All parallelization in ORCA, NUMFREQ, NUMCALC 
  Giovanni Bistoni       : ED, misc. LED, open-shell LED, HFLD           
  Dmytro Bykov           : pre 5.0 version of the SCF Hessian            
  Marcos Casanova-Páez   : Triplet and SCS-CIS(D). UHF-(DLPNO)-IP/EA/STEOM-CCSD. UHF-CVS-IP/STEOM-CCSD   
  Vijay G. Chilkuri      : MRCI spin determinant printing, contributions to CSF-ICE 
  Pauline Colinet        : FMM embedding                                 
  Dipayan Datta          : RHF DLPNO-CCSD density                        
  Achintya Kumar Dutta   : EOM-CC, STEOM-CC                              
  Nicolas Foglia         : Exact transition moments, OPA infrastructure, MCD improvements    
  Dmitry Ganyushin       : Spin-Orbit,Spin-Spin,Magnetic field MRCI      
  Miquel Garcia-Rates    : C-PCM and meta-GGA Hessian, CCSD/C-PCM, Gaussian charge scheme 
  Tiago L. C. Gouveia    : GS-ROHF, GS-ROCIS                             
  Yang Guo               : DLPNO-NEVPT2, F12-NEVPT2, CIM, IAO-localization        
  Andreas Hansen         : Spin unrestricted coupled pair/coupled cluster methods 
  Ingolf Harden          : AUTO-CI MPn and infrastructure                
  Benjamin Helmich-Paris : MC-RPA, TRAH-(SCF,CASSCF), AVAS, COSX integrals, SCF dyn. polar., MC-PDFT, srDFT 
  Lee Huntington         : MR-EOM, pCC                                   
  Robert Izsak           : Overlap fitted RIJCOSX, COSX-SCS-MP3, EOM     
  Riya Kayal             : Wick's Theorem for AUTO-CI, AUTO-CI UHF-CCSDT 
  Emily Kempfer          : AUTO-CI RHF CISDT and CCSDT, approximate NEVPT4
  Christian Kollmar      : KDIIS, OOCD, Brueckner-CCSD(T), CCSD density, CASPT2, CASPT2-K, improved NEVPT2 
  Axel Koslowski         : Symmetry handling                             
  Simone Kossmann        : meta-GGA functionals, TD-DFT gradient, OOMP2, (MP2 Hessian; deprecated post 5.0) 
  Lucas Lang             : DCDCAS, Hyperfine gauge corrections, ICE-SOC+SSC
  Marvin Lechner         : AUTO-CI (C++ implementation), FIC-MRCC        
  Spencer Leger          : CASSCF response                               
  Dagmar Lenk            : GEPOL surface, SMD, ORCA-2-JSON               
  Dimitrios Liakos       : Extrapolation schemes; Compound Job, Property file
  Dimitrios Manganas     : Further ROCIS development; embedding schemes. LFT, Crystal Embedding 
  Dimitrios Pantazis     : SARC Basis sets                               
  Anastasios Papadopoulos: AUTO-CI, single reference methods and gradients 
  Taras Petrenko         : pre 6.0 DFT Hessian and TD-DFT gradient,  ECA, NRVS 
  Petra Pikulova         : Analytic Raman intensities                    
  Peter Pinski           : DLPNO-MP2, DLPNO-MP2 Gradient                 
  Shashank Vittal Rao    : ES-AILFT, MagRelax                            
  Christoph Reimann      : Effective Core Potentials                     
  Marius Retegan         : Local ZFS, SOC                                
  Christoph Riplinger    : Optimizer, TS searches, QM/MM, DLPNO-CCSD(T), (RO)-DLPNO pert. Triples 
  Michael Roemelt        : Original ROCIS implementation, recursive CI coupling coefficients
  Masaaki Saitow         : Open-shell DLPNO-CCSD energy and density      
  Barbara Sandhoefer     : DKH picture change effects                    
  Yorick L. A. Schmerwitz: GMF and freeze-and-release deltaSCF, NEB S-IDPP initial path                    
  Kantharuban Sivalingam : CASSCF convergence/infrastructure, NEVPT2, NEVPT3, NEVPT4(SD), FIC-MRCI and CEPA variants
  Bernardo de Souza      : ESD, SOC TD-DFT                               
  Georgi L. Stoychev     : AutoAux, RI-MP2 NMR, DLPNO-MP2 response, X2C  
  Van Anh Tran           : RI-MP2 g-tensors                              
  Willem Van den Heuvel  : Paramagnetic NMR                              
  Zikuan Wang            : NOTCH, Electric field optimization            
  Frank Wennmohs         : Technical directorship and infrastructure     
  Hang Xu                : AUTO-CI-Response properties                   
                                                                         
[FACCTs GmbH]                                                            
  Markus Bursch, Nicolas Foglia, Miquel Garcia-Rates, Ingolf Harden, Hagen Neugebauer, Anastasios Papadopoulos, 
  Christoph Riplinger, Bernardo de Souza, Georgi L. Stoychev                                                    
                                                                 
  APM, various basis sets, CI-OPT, improved COSX, DLPNO-Multilevel,           
  DOCKER, DRACO, updates on ESD, Fragmentator, GOAT, IRC, LR-CPCM, L-BFGS, MBIS, meta-GGA TD-DFT gradient, ML-optimized integration grids, 
  MM, NACMEs, nearIR, NEB, NEB-TS, NL-DFT gradient (VV10), 2- and 3-layer-ONIOM, interface openCOSMO-RS, QMMM,   
  Crystal-QMMM, RESP, rigid body optimization, SF, symmetry and pop. for TD-DFT, various functionals, SOLVATOR                                   
                                                                         
[Other institutions]                                                     
  V. Asgeirsson          : NEB                                           
  Christoph Bannwarth    : sTDA-DFT, sTD-DFT, PBEh-3c, B97-3c, D3        
  Giovanni Bistoni       : ETS/NOCV, ADLD/ADEX, COVALED                  
  Martin Brehm           : Molecular dynamics                            
  Ronald Cardenas        : ETS/NOCV                                      
  Martina Colucci        : COVALED                                       
  Sebastian Ehlert       : rSCAN, r2SCAN, r2SCAN-3c, D4, dhf basis sets  
  Marvin Friede          : D4 for Fr, Ra, Ac-Lr                          
  Lars Goerigk           : TD-DFT with DH, B97 family of functionals     
  Stefan Grimme          : VdW corrections, initial TS optimization, DFT functionals, gCP, sTDA/sTD-DF 
  Waldemar Hujo          : DFT-NL                                        
  H. Jonsson             : NEB                                           
  Holger Kruse           : gCP                                           
  Marcel Mueller         : wB97X-3c, vDZP basis set                      
  Hagen Neugebauer       : wr2SCAN, Native XTB                           
  Gianluca Regni         : ADLD/ADEX                                     
  Tobias Risthaus        : pre 6.0 range-separated hybrid DFT and stability analysis
  Lukas Wittmann         : regularized MP2, r2SCAN double-hybrids, wr2SCAN        
                                                                         
We gratefully acknowledge several colleagues who have allowed us to      
interface, adapt or use parts of their codes:                            
  Ed Valeev, F. Pavosevic, A. Kumar             : LibInt (2-el integral package), F12 methods 
  Garnet Chan, S. Sharma, J. Yang, R. Olivares  : DMRG                   
  Ulf Ekstrom                                   : XCFun DFT Library      
  Mihaly Kallay                                 : mrcc  (arbitrary order and MRCC methods)
  Frank Weinhold                                : gennbo (NPA and NBO analysis)           
  Simon Mueller                                 : openCOSMO-RS                            
  Christopher J. Cramer and Donald G. Truhlar   : smd solvation model                     
  S Lehtola, MJT Oliveira, MAL Marques          : LibXC Library                           
  Liviu Ungur et al                             : ANISO software                          


 Your calculation uses the libint2 library for the computation of 2-el integrals
 For citations please refer to: http://libint.valeyev.net

 Your ORCA version has been built with support for libXC version: 7.0.0
 For citations please refer to: https://libxc.gitlab.io

 This ORCA versions uses:
   CBLAS   interface :  Fast vector & matrix operations
   LAPACKE interface :  Fast linear algebra routines
   SCALAPACK package :  Parallel linear algebra routines
   Shared memory     :  Shared parallel matrices


  ***********************************
  * Starting time: Thu Jun 11 11:44:43 2026
  * Host name:     MacBook-Pro-262.local
  * Process ID:    76403
  * Working dir.:  /Users/Dinga_1/OneDrive - Nottingham Trent University/NTU2/All_building_units_orca/Hydrogen
  ***********************************

Using LibXC functional ID 475 : B3LYP with VWN functional 5 instead of RPA
[ 1]  P. J. Stephens, F. J. Devlin, C. F. Chabalowski, and M. J. Frisch.,  J. Phys. Chem. 98, 11623 (1994)
Using LibXC functional ID 475 : B3LYP with VWN functional 5 instead of RPA
[ 1]  P. J. Stephens, F. J. Devlin, C. F. Chabalowski, and M. J. Frisch.,  J. Phys. Chem. 98, 11623 (1994)
Your calculation utilizes the atom-pairwise dispersion correction
based on EEQ partial charges (D4)


Your calculation utilizes LibXC
by S. Lehtola, C. Steigemann, M. J. T. Oliveira & M. A. L. Marques
Please cite in your paper:
Lehtola, S.; Steigemann, C.; Oliveira, M.J.T.; Marques, M. A. L. Software X, 7, (2018), 1.
   

================================================================================

----- Orbital basis set information -----
Your calculation utilizes the basis: def2-TZVP
   F. Weigend and R. Ahlrichs, Phys. Chem. Chem. Phys. 7, 3297 (2005).

----- AuxJ basis set information -----
Your calculation utilizes the auxiliary basis: def2/J
   H-Rn: F. Weigend, Phys. Chem. Chem. Phys. 8, 1057 (2006).
   Fr-Lr: K. Eichkorn, F. Weigend, O. Treutler, R. Ahlrichs; Theor. Chem. Acc. 97, 119 (1997).

================================================================================
                                        WARNINGS
                       Please study these warnings very carefully!
================================================================================

WARNING: LED requested without fragments!
         Switching on Automated fragmentation 
         Check your results carefully! 


================================================================================
 STARTING AUTOMATIC FRAGMENTATION: 
================================================================================

WARNING: For VCD calculations, the electric field origin must be at (0,0,0)
      => Setting:   %elprop   Origin=0,0,0

WARNING: Geometry Optimization
  ===> : Switching off AutoStart
         For restart on a previous wavefunction, please use MOREAD

================================================================================
                                       INPUT FILE
================================================================================
NAME = CH4.inp
|  1> #
|  2> 
|  3> !LibXC(B3LYP)  D4 OPT FREQ def2-TZVP DefGrid3 VeryTightSCF ALLPOP FMOPop  LED RIJCOSX def2/J
|  4> 
|  5>  %scf
|  6>     MaxIter 250
|  7>  end
|  8> 
|  9> %FREQ
| 10>  RESTART TRUE
| 11>  doVCD true
| 12>  END
| 13> 
| 14>  %output
| 15>   print[p_mos] true
| 16>  end
| 17> 
| 18>  %elprop
| 19>  Quadrupole True
| 20>   Polar 1
| 21>  PolarDipQuad true
| 22>  end
| 23> 
| 24> * xyz 0  1
| 25> C       -0.0528663451      0.3501170936     -0.0000001004                 
| 26> H        1.0393330198      0.3501159634      0.0000016763                 
| 27> H       -0.4169307302      0.6194719877     -0.9938836535                 
| 28> H       -0.4169333549      1.0761679529      0.7302086471                 
| 29> H       -0.4169343605     -0.6452876538      0.2636729615  
| 30> *
| 31>  %eprnmr
| 32>  nuclei = all {fgrad}
| 33>  end
| 34> 
| 35>                          ****END OF INPUT****
================================================================================

                       *****************************
                       * Geometry Optimization Run *
                       *****************************

Geometry optimization settings:
Update method            Update   .... BFGS
Choice of coordinates    CoordSys .... (2022) Redundant Internals
Initial Hessian          InHess   .... Almloef's Model
Max. no of cycles        MaxIter  .... 50

Convergence Tolerances:
Energy Change            TolE     ....  5.0000e-06 Eh
Max. Gradient            TolMAXG  ....  3.0000e-04 Eh/bohr
RMS Gradient             TolRMSG  ....  1.0000e-04 Eh/bohr
Max. Displacement        TolMAXD  ....  4.0000e-03 bohr
RMS Displacement         TolRMSD  ....  2.0000e-03 bohr
Strict Convergence                .... False

------------------------------------------------------------------------------
                        ORCA OPTIMIZATION COORDINATE SETUP
------------------------------------------------------------------------------

The optimization will be done in redundant internal coordinates (2022)
Making redundant internal coordinates   ...  (2022 redundants) done
Evaluating the initial hessian          ...  (Almloef) done
Evaluating the coordinates              ...  done
Calculating the B-matrix                .... done
Calculating the G-matrix                .... done
The number of degrees of freedom        ....   10

    -----------------------------------------------------------------
                    Redundant Internal Coordinates


    -----------------------------------------------------------------
         Definition                    Initial Value    Approx d2E/dq
    -----------------------------------------------------------------
      1. B(H   1,C   0)                  1.0922         0.357202   
      2. B(H   2,C   0)                  1.0922         0.357202   
      3. B(H   3,C   0)                  1.0922         0.357202   
      4. B(H   4,C   0)                  1.0922         0.357202   
      5. A(H   1,C   0,H   3)          109.4712         0.290103   
      6. A(H   2,C   0,H   3)          109.4712         0.290103   
      7. A(H   1,C   0,H   4)          109.4712         0.290103   
      8. A(H   2,C   0,H   4)          109.4712         0.290103   
      9. A(H   3,C   0,H   4)          109.4712         0.290103   
     10. A(H   1,C   0,H   2)          109.4712         0.290103   
    -----------------------------------------------------------------

Number of atoms                         .... 5
Number of degrees of freedom            .... 10


         *************************************************************
         *                GEOMETRY OPTIMIZATION CYCLE   1            *
         *************************************************************
---------------------------------
CARTESIAN COORDINATES (ANGSTROEM)
---------------------------------
  C     -0.052866    0.350117   -0.000000
  H      1.039333    0.350116    0.000002
  H     -0.416931    0.619472   -0.993884
  H     -0.416933    1.076168    0.730209
  H     -0.416934   -0.645288    0.263673

----------------------------
CARTESIAN COORDINATES (A.U.)
----------------------------
  NO LB      ZA    FRAG     MASS         X           Y           Z
   0 C     6.0000    1    12.011   -0.099903    0.661625   -0.000000
   1 H     1.0000    1     1.008    1.964055    0.661623    0.000003
   2 H     1.0000    1     1.008   -0.787885    1.170632   -1.878168
   3 H     1.0000    1     1.008   -0.787890    2.033663    1.379894
   4 H     1.0000    1     1.008   -0.787892   -1.219417    0.498270

----------------------------------------------
CARTESIAN COORDINATES OF FRAGMENTS (ANGSTROEM)
----------------------------------------------

 FRAGMENT 1 
  C    -0.052866    0.350117   -0.000000
  H     1.039333    0.350116    0.000002
  H    -0.416931    0.619472   -0.993884
  H    -0.416933    1.076168    0.730209
  H    -0.416934   -0.645288    0.263673

--------------------------------
INTERNAL COORDINATES (ANGSTROEM)
--------------------------------
 C      0   0   0     0.000000000000     0.00000000     0.00000000
 H      1   0   0     1.092199364902     0.00000000     0.00000000
 H      1   2   0     1.092199364858   109.47121093     0.00000000
 H      1   2   3     1.092199364970   109.47122722   239.99999385
 H      1   2   3     1.092199439002   109.47122491   120.00000191

---------------------------
INTERNAL COORDINATES (A.U.)
---------------------------
 C      0   0   0     0.000000000000     0.00000000     0.00000000
 H      1   0   0     2.063957683308     0.00000000     0.00000000
 H      1   2   0     2.063957683225   109.47121093     0.00000000
 H      1   2   3     2.063957683436   109.47122722   239.99999385
 H      1   2   3     2.063957823336   109.47122491   120.00000191

---------------------
BASIS SET INFORMATION
---------------------
There are 2 groups of distinct atoms

 Group   1 Type C   : 11s6p2d1f contracted to 5s3p2d1f pattern {62111/411/11/1}
 Group   2 Type H   : 5s1p contracted to 3s1p pattern {311/1}

Atom   0C    basis set group =>   1
Atom   1H    basis set group =>   2
Atom   2H    basis set group =>   2
Atom   3H    basis set group =>   2
Atom   4H    basis set group =>   2
---------------------------------
AUXILIARY/J BASIS SET INFORMATION
---------------------------------
There are 2 groups of distinct atoms

 Group   1 Type C   : 12s5p4d2f1g contracted to 6s4p3d1f1g pattern {711111/2111/211/2/1}
 Group   2 Type H   : 5s2p1d contracted to 3s1p1d pattern {311/2/1}

Atom   0C    basis set group =>   1
Atom   1H    basis set group =>   2
Atom   2H    basis set group =>   2
Atom   3H    basis set group =>   2
Atom   4H    basis set group =>   2
------------------------------------------------------------------------------
                             ORCA STARTUP CALCULATIONS
                           -- RI-GTO INTEGRALS CHOSEN --
------------------------------------------------------------------------------
------------------------------------------------------------------------------
                   ___                                                        
                  /   \      - P O W E R E D   B Y -                         
                 /     \                                                     
                 |  |  |   _    _      __       _____    __    __             
                 |  |  |  | |  | |    /  \     |  _  \  |  |  /  |          
                  \  \/   | |  | |   /    \    | | | |  |  | /  /          
                 / \  \   | |__| |  /  /\  \   | |_| |  |  |/  /          
                |  |  |   |  __  | /  /__\  \  |    /   |      \           
                |  |  |   | |  | | |   __   |  |    \   |  |\   \          
                \     /   | |  | | |  |  |  |  | |\  \  |  | \   \       
                 \___/    |_|  |_| |__|  |__|  |_| \__\ |__|  \__/        
                                                                              
                      - O R C A' S   B I G   F R I E N D -                    
                                      &                                       
                       - I N T E G R A L  F E E D E R -                       
                                                                              
 v1 FN, 2020, v2 2021, v3 2022-2024                                           
------------------------------------------------------------------------------


----------------------
SHARK INTEGRAL PACKAGE
----------------------

Number of atoms                             ...      5
Number of basis functions                   ...     55
Number of shells                            ...     27
Maximum angular momentum                    ...      3
Integral batch strategy                     ... SHARK/LIBINT Hybrid
RI-J (if used) integral strategy            ... SPLIT-RIJ (Revised 2003 algorithm where possible)
Printlevel                                  ...      1
Contraction scheme used                     ... SEGMENTED contraction
Prescreening option                         ... SCHWARTZ
   Thresh                                   ... 1.000e-12
   Tcut                                     ... 1.000e-14
   Tpresel                                  ... 1.000e-14 
Coulomb Range Separation                    ... NOT USED
Exchange Range Separation                   ... NOT USED
Multipole approximations                    ... NOT USED
Finite Nucleus Model                        ... NOT USED
CABS basis                                  ... NOT available
Auxiliary Coulomb fitting basis             ... AVAILABLE
   # of basis functions in Aux-J            ...     93
   # of shells in Aux-J                     ...     35
   Maximum angular momentum in Aux-J        ...      4
Auxiliary J/K fitting basis                 ... NOT available
Auxiliary Correlation fitting basis         ... NOT available
Auxiliary 'external' fitting basis          ... NOT available

Checking pre-screening integrals            ... done (  0.0 sec) Dimension = 27
   => SHARK Basis and OBASIS are compatible. Storing Pre-screening
Shell pair information
Shell pair cut-off parameter TPreSel        ...   1.0e-14
Total number of shell pairs                 ...       378
Shell pairs after pre-screening             ...       378
Total number of primitive shell pairs       ...      1024
Primitive shell pairs kept                  ...       978
          la=0 lb=0:    153 shell pairs
          la=1 lb=0:    119 shell pairs
          la=1 lb=1:     28 shell pairs
          la=2 lb=0:     34 shell pairs
          la=2 lb=1:     14 shell pairs
          la=2 lb=2:      3 shell pairs
          la=3 lb=0:     17 shell pairs
          la=3 lb=1:      7 shell pairs
          la=3 lb=2:      2 shell pairs
          la=3 lb=3:      1 shell pairs

Checking whether 4 symmetric matrices of dimension 55 fit in memory
:Max Core in MB      =   4096.00
 MB in use           =      3.53
 MB left             =   4092.47
 MB needed           =      0.05
 Data fit in memory  = YES
Calculating RI/J V-Matrix + Cholesky decomp.... done (  0.0 sec)
Calculating Nuclear repulsion               ... done (  0.0 sec) ENN=     13.408334079936 Eh

Diagonalization of the overlap matrix:
Smallest eigenvalue                        ... 1.465e-03
Time for diagonalization                   ...    0.006 sec
Threshold for overlap eigenvalues          ... 1.000e-07
Number of eigenvalues below threshold      ... 0
Time for construction of square roots      ...    0.000 sec
Total time needed                          ...    0.007 sec

-------------------
DFT GRID GENERATION
-------------------

General Integration Accuracy     IntAcc      ... 4.959
Radial Grid Type                 RadialGrid  ... OptM3 with GC (2021)
Angular Grid (max. ang.)         AngularGrid ... 6 (Lebedev-590)
Angular grid pruning method      GridPruning ... 4 (adaptive)
Weight generation scheme         WeightScheme... mBecke (2022)
Basis function cutoff            BFCut       ... 1.0000e-12
Integration weight cutoff        WCut        ... 1.0000e-14
Partially contracted basis set               ... off
Rotationally invariant grid construction     ... off
Angular grids for H and He will be reduced by one unit

Total number of grid points                  ...    50618
Total number of batches                      ...      793
Average number of points per batch           ...       63
Average number of grid points per atom       ...    10124

--------------------
COSX GRID GENERATION
--------------------

GRIDX 1
-------
General Integration Accuracy     IntAcc      ... 4.020
Radial Grid Type                 RadialGrid  ... OptM3 with GC (2021)
Angular Grid (max. ang.)         AngularGrid ... 2 (Lebedev-110)
Angular grid pruning method      GridPruning ... 4 (adaptive)
Weight generation scheme         WeightScheme... mBecke (2022)
Basis function cutoff            BFCut       ... 1.0000e-12
Integration weight cutoff        WCut        ... 1.0000e-14
Partially contracted basis set               ... on
Rotationally invariant grid construction     ... off
Angular grids for H and He will be reduced by one unit

Total number of grid points                  ...     5061
Total number of batches                      ...       42
Average number of points per batch           ...      120
Average number of grid points per atom       ...     1012
UseSFitting                                  ... on

GRIDX 2
-------
General Integration Accuracy     IntAcc      ... 4.338
Radial Grid Type                 RadialGrid  ... OptM3 with GC (2021)
Angular Grid (max. ang.)         AngularGrid ... 3 (Lebedev-194)
Angular grid pruning method      GridPruning ... 4 (adaptive)
Weight generation scheme         WeightScheme... mBecke (2022)
Basis function cutoff            BFCut       ... 1.0000e-12
Integration weight cutoff        WCut        ... 1.0000e-14
Partially contracted basis set               ... on
Rotationally invariant grid construction     ... off
Angular grids for H and He will be reduced by one unit

Total number of grid points                  ...    11154
Total number of batches                      ...       90
Average number of points per batch           ...      123
Average number of grid points per atom       ...     2231
UseSFitting                                  ... on

GRIDX 3
-------
General Integration Accuracy     IntAcc      ... 4.871
Radial Grid Type                 RadialGrid  ... OptM3 with GC (2021)
Angular Grid (max. ang.)         AngularGrid ... 4 (Lebedev-302)
Angular grid pruning method      GridPruning ... 4 (adaptive)
Weight generation scheme         WeightScheme... mBecke (2022)
Basis function cutoff            BFCut       ... 1.0000e-12
Integration weight cutoff        WCut        ... 1.0000e-14
Partially contracted basis set               ... on
Rotationally invariant grid construction     ... off
Angular grids for H and He will be reduced by one unit

Total number of grid points                  ...    23517
Total number of batches                      ...      186
Average number of points per batch           ...      126
Average number of grid points per atom       ...     4703
UseSFitting                                  ... on
Grids setup in   0.3 sec
Initializing property integral containers    ... done (  0.0 sec)

SHARK setup successfully completed in   0.3 seconds

Maximum memory used throughout the entire STARTUP-calculation: 19.0 MB
-------------------------------------------------------------------------------
                                 ORCA GUESS
                   Start orbitals & Density for SCF / CASSCF
-------------------------------------------------------------------------------

------------
SCF SETTINGS
------------
Hamiltonian:
 Density Functional     Method          .... DFT(GTOs)
  Functional kind                       .... Exchange-Correlation
  Functional name                       .... B3LYP with VWN functional 5 instead of RPA
  Functional family                     .... Hybrid GGA
  Functional refs                              
    [ 0] P. J. Stephens, F. J. Devlin, C. F. Chabalowski, and M. J. Frisch.,  J. Phys. Chem. 98, 11623 (1994), doi: 10.1021/j100096a001
  Fraction of HF Exchange               .... 0.2000
  Functional external parameters        .... 3
    Parameter  0 _a0        =  2.000000e-01 : Fraction of exact exchange
    Parameter  1 _ax        =  7.200000e-01 : Fraction of GGA exchange correction
    Parameter  2 _ac        =  8.100000e-01 : Fraction of GGA correlation correction
   NL short-range parameter             ....  4.800000
 RI-approximation to the Coulomb term is turned on
   Number of AuxJ basis functions       .... 93
   RIJ-COSX (HFX calculated with COS-X)).... on


General Settings:
 Integral files         IntName         .... CH4
 Hartree-Fock type      HFTyp           .... RHF
 Total Charge           Charge          ....    0
 Multiplicity           Mult            ....    1
 Number of Electrons    NEL             ....   10
 Basis Dimension        Dim             ....   55
 Nuclear Repulsion      ENuc            ....     13.4083340799 Eh

Convergence Acceleration:
 AO-DIIS                CNVDIIS         .... on
   Start iteration      DIISMaxIt       ....    12
   Startup error        DIISStart       ....  0.200000
   # of expansion vecs  DIISMaxEq       ....     5
   Bias factor          DIISBfac        ....   1.050
   Max. coefficient     DIISMaxC        ....  10.000
 MO-DIIS                CNVKDIIS        .... off
 Trust-Rad. Augm. Hess. CNVTRAH         .... auto
   Auto Start mean grad. ratio tolernc. ....  1.125000
   Auto Start start iteration           ....    50
   Auto Start num. interpolation iter.  ....    10
   Max. Number of Micro iterations      ....    24
   Max. Number of Macro iterations      .... Maxiter - #DIIS iter
   Number of Davidson start vectors     ....     2
   Converg. threshold    (grad. norm)   ....   2.000e-06
   Grad. Scal. Fac. for Micro threshold ....   0.100
   Minimum threshold for Micro iter.    ....   1.000e-02
   NR start threshold (gradient norm)   ....   1.000e-04
   Initial trust radius                 ....   0.400
   Minimum AH scaling param. (alpha)    ....   1.000
   Maximum AH scaling param. (alpha)    .... 1000.000
   Quad. conv. algorithm                .... NR
   White noise on init. David. guess    .... on
   Maximum white noise                  ....   0.010
   Pseudo random numbers                .... off
   Inactive MOs                         .... canonical
   Orbital update algorithm             .... Taylor
   Preconditioner                       .... Diag
   Full preconditioner red. dimension   ....   250
 SOSCF                 CNVSOSCF           .... on
   Start iteration     SOSCFMaxIt         ....   150
   Startup grad/error  SOSCFStart         ....  0.003300
   Hessian update      SOSCFHessUp        .... L-BFGS
   Autom. constraints  SOSCFAutoConstrain .... off
 Level Shifting         CNVShift        .... on
   Level shift para.    LevelShift      ....    0.2500
   Turn off err/grad.   ShiftErr        ....    0.0010
 Zerner damping         CNVZerner       .... off
 Static damping         CNVDamp         .... on
   Fraction old density DampFac         ....    0.7000
   Max. Damping (<1)    DampMax         ....    0.9800
   Min. Damping (>=0)   DampMin         ....    0.0000
   Turn off err/grad.   DampErr         ....    0.1000

SCF Procedure:
 Maximum # iterations   MaxIter         ....   250
 SCF integral mode      SCFMode         .... Direct
   Integral package                     .... SHARK and LIBINT hybrid scheme
 Reset frequency        DirectResetFreq ....    20
 Integral Threshold     Thresh          ....  1.000e-12 Eh
 Primitive CutOff       TCut            ....  1.000e-14 Eh

Convergence Tolerance:
 Convergence Check Mode ConvCheckMode   .... Total+1el-Energy
 Convergence forced     ConvForced      .... 0
 Energy Change          TolE            ....  1.000e-09 Eh
 1-El. energy change                    ....  1.000e-06 Eh
 Orbital Gradient       TolG            ....  2.000e-06
 Orbital Rotation angle TolX            ....  2.000e-06
 DIIS Error             TolErr          ....  1.000e-08

------------------------------
INITIAL GUESS: MODEL POTENTIAL
------------------------------
Loading Hartree-Fock densities                     ... done
Calculating cut-offs                               ... done
Initializing the effective Hamiltonian             ... done
Setting up the integral package (SHARK)            ... done
Starting the Coulomb interaction                   ... done (   0.0 sec)
Making the grid                                    ... done (   0.0 sec)
Mapping shells                                     ... done
Starting the XC term evaluation                    ... done (   0.0 sec)
  promolecular density results
     # of electrons  =      9.998867436
     EX+EC           =     -5.335738870
Transforming the Hamiltonian                       ... done (   0.0 sec)
Diagonalizing the Hamiltonian                      ... done (   0.0 sec)
Back transforming the eigenvectors                 ... done (   0.0 sec)
Now organizing SCF variables                       ... done
                      ------------------
                      INITIAL GUESS DONE (   0.0 sec)
                      ------------------
             **** ENERGY FILE WAS UPDATED (CH4.en.tmp) ****
Finished Guess after   0.0 sec
Maximum memory used throughout the entire GUESS-calculation: 7.3 MB

-------------------------------------------------------------------------------------------
                                      ORCA LEAN-SCF
                              memory conserving SCF solver
-------------------------------------------------------------------------------------------

----------------------------------------D-I-I-S--------------------------------------------
Iteration    Energy (Eh)           Delta-E    RMSDP     MaxDP     DIISErr   Damp  Time(sec)
-------------------------------------------------------------------------------------------
               ***  Starting incremental Fock matrix formation  ***
    1    -40.4755069552894824     0.00e+00  1.67e-03  1.95e-02  3.02e-01  0.700   0.3
    2    -40.4871787451076557    -1.17e-02  1.23e-03  1.26e-02  2.14e-01  0.700   0.2
                               ***Turning on AO-DIIS***
    3    -40.4922198534007904    -5.04e-03  5.11e-04  6.77e-03  1.51e-01  0.700   0.2
    4    -40.4951695364282074    -2.95e-03  2.72e-04  3.41e-03  1.03e-01  0.700   0.2
    5    -40.4971319860900323    -1.96e-03  1.77e-04  2.08e-03  7.13e-02  0.700   0.2
    6    -40.4984974792195089    -1.37e-03  4.23e-04  4.88e-03  4.96e-02  0.000   0.2
                              *** Initializing SOSCF ***
---------------------------------------S-O-S-C-F--------------------------------------
Iteration    Energy (Eh)           Delta-E    RMSDP     MaxDP     MaxGrad    Time(sec)
--------------------------------------------------------------------------------------
    7    -40.5016549225840023    -3.16e-03  3.54e-05  4.45e-04  8.43e-04     0.2
               *** Restarting incremental Fock matrix formation ***
    8    -40.5016556550299711    -7.32e-07  2.32e-05  3.78e-04  1.64e-04     0.3
    9    -40.5016555588297749     9.62e-08  1.33e-05  1.63e-04  1.53e-04     0.3
   10    -40.5016559062338288    -3.47e-07  3.91e-07  4.55e-06  6.01e-06     0.3
   11    -40.5016559062788062    -4.50e-11  4.06e-08  3.84e-07  5.74e-07     0.3
                 **** Energy Check signals convergence ****

               *****************************************************
               *                     SUCCESS                       *
               *           SCF CONVERGED AFTER  11 CYCLES          *
               *****************************************************

Recomputing exchange energy using gridx3       ... done (    0.328 sec)
Old exchange energy                            :     -1.315283693 Eh
New exchange energy                            :     -1.315283280 Eh
Exchange energy change after final integration :      0.000000413 Eh
Total energy after final integration           :    -40.501655494 Eh
             **** ENERGY FILE WAS UPDATED (CH4.en.tmp) ****

----------------
TOTAL SCF ENERGY
----------------

Total Energy       :        -40.50165549360875 Eh           -1102.10608 eV

Components:
Nuclear Repulsion  :         13.40833407993571 Eh             364.85932 eV
Electronic Energy  :        -53.90998998622523 Eh           -1466.96541 eV
One Electron Energy:        -79.79195726849871 Eh           -2171.24954 eV
Two Electron Energy:         25.88196728227348 Eh             704.28413 eV

Virial components:
Potential Energy   :        -80.74799101720799 Eh           -2197.26454 eV
Kinetic Energy     :         40.24633552359924 Eh            1095.15847 eV
Virial Ratio       :          2.00634393086197

DFT components:
N(Alpha)           :        5.000000060136 electrons
N(Beta)            :        5.000000060136 electrons
N(Total)           :       10.000000120271 electrons
E(XC)              :       -5.556646848944 Eh       

---------------
SCF CONVERGENCE
---------------

  Last Energy change         ...    4.4977e-11  Tolerance :   1.0000e-09
  Last MAX-Density change    ...    3.8376e-07  Tolerance :   1.0000e-08
  Last RMS-Density change    ...    4.0648e-08  Tolerance :   1.0000e-09
  Last DIIS Error            ...    8.4326e-04  Tolerance :   1.0000e-08
  Last Orbital Gradient      ...    5.7435e-07  Tolerance :   2.0000e-06
  Last Orbital Rotation      ...    2.1478e-07  Tolerance :   2.0000e-06


----------------
ORBITAL ENERGIES
----------------

  NO   OCC          E(Eh)            E(eV) 
   0   2.0000     -10.151516      -276.2368 
   1   2.0000      -0.692433       -18.8421 
   2   2.0000      -0.391716       -10.6591 
   3   2.0000      -0.391716       -10.6591 
   4   2.0000      -0.391716       -10.6591 
   5   0.0000       0.050373         1.3707 
   6   0.0000       0.125263         3.4086 
   7   0.0000       0.125263         3.4086 
   8   0.0000       0.125264         3.4086 
   9   0.0000       0.199406         5.4261 
  10   0.0000       0.199408         5.4262 
  11   0.0000       0.199409         5.4262 
  12   0.0000       0.392884        10.6909 
  13   0.0000       0.472587        12.8598 
  14   0.0000       0.472588        12.8598 
  15   0.0000       0.472588        12.8598 
*Only the first 10 virtual orbitals were printed.
------------------
MOLECULAR ORBITALS (RHF, ROHF)
------------------
                      0         1         2         3         4         5   
                 -10.15152  -0.69243  -0.39172  -0.39172  -0.39172   0.05037
                   2.00000   2.00000   2.00000   2.00000   2.00000   0.00000
                  --------  --------  --------  --------  --------  --------
  0C   1s         0.466775  0.095649  0.000000 -0.000000 -0.000000 -0.051768
  0C   2s         0.608595  0.202427  0.000000 -0.000000 -0.000000 -0.113782
  0C   3s         0.034954 -0.321096 -0.000001  0.000001 -0.000000  0.299962
  0C   4s        -0.014522 -0.330609  0.000001 -0.000001  0.000002 -0.203912
  0C   5s         0.022638 -0.091883  0.000000 -0.000000 -0.000002  4.755022
  0C   1pz        0.000000  0.000000 -0.304433 -0.074201  0.099474 -0.000001
  0C   1px        0.000000  0.000000 -0.121307  0.122329 -0.280001 -0.000001
  0C   1py        0.000000  0.000000 -0.026182  0.295991  0.140657 -0.000001
  0C   2pz       -0.000000 -0.000002 -0.214566 -0.052297  0.070110  0.000001
  0C   2px       -0.000000 -0.000000 -0.085498  0.086218 -0.197345  0.000001
  0C   2py       -0.000000 -0.000002 -0.018454  0.208616  0.099136  0.000001
  0C   3pz        0.000001  0.000005 -0.111760 -0.027236  0.036516 -0.000002
  0C   3px        0.000000  0.000002 -0.044531  0.044907 -0.102793 -0.000001
  0C   3py        0.000001  0.000005 -0.009615  0.108660  0.051634 -0.000002
  0C   1dz2       0.000000  0.000000  0.009759  0.006144  0.007952 -0.000000
  0C   1dxz       0.000000  0.000000  0.008648  0.002108 -0.002826 -0.000000
  0C   1dyz      -0.000000 -0.000000 -0.009459  0.006210  0.006811  0.000000
  0C   1dx2y2    -0.000000 -0.000000 -0.001257  0.010497 -0.011316  0.000000
  0C   1dxy       0.000000  0.000000  0.000744 -0.008408 -0.003995 -0.000000
  0C   2dz2       0.000000 -0.000000  0.001305  0.000821  0.001063  0.000000
  0C   2dxz      -0.000000  0.000000  0.001156  0.000282 -0.000377  0.000001
  0C   2dyz       0.000000 -0.000000 -0.001265  0.000831  0.000909 -0.000001
  0C   2dx2y2    -0.000000  0.000000 -0.000169  0.001403 -0.001512 -0.000000
  0C   2dxy      -0.000000  0.000000  0.000099 -0.001124 -0.000533  0.000001
  0C   1f0       -0.000800  0.002760  0.000185 -0.000047  0.000133  0.008227
  0C   1f+1      -0.000988  0.003410  0.000134  0.000352 -0.000136  0.010164
  0C   1f-1       0.000997 -0.003439 -0.000088  0.000048 -0.000233 -0.010251
  0C   1f+2      -0.000620  0.002138 -0.000087 -0.000093  0.000179  0.006373
  0C   1f-2       0.000000  0.000000 -0.000316  0.000207  0.000228  0.000000
  0C   1f+3      -0.001276  0.004402 -0.000254 -0.000121 -0.000242  0.013122
  0C   1f-3      -0.000257  0.000888  0.000039 -0.000196 -0.000027  0.002647
  1H   1s        -0.000618 -0.084643 -0.068001  0.068573 -0.156960 -0.014519
  1H   2s        -0.002143 -0.090863 -0.097389  0.098209 -0.224796  0.127497
  1H   3s        -0.004358 -0.012743 -0.043298  0.043662 -0.099932 -1.675833
  1H   1pz        0.000000  0.000000 -0.010815 -0.002636  0.003534 -0.000000
  1H   1px        0.002231  0.012669  0.007047 -0.007106  0.016267 -0.039464
  1H   1py        0.000000 -0.000000 -0.000930  0.010515  0.004997 -0.000000
  2H   1s        -0.000618 -0.084643  0.174340  0.055912  0.021022 -0.014519
  2H   2s        -0.002143 -0.090864  0.249685  0.080077  0.030106  0.127496
  2H   3s        -0.004358 -0.012738  0.111005  0.035602  0.013384 -1.675834
  2H   1pz       -0.002030 -0.011529  0.015680  0.005861  0.006729  0.035911
  2H   1px       -0.000744 -0.004223  0.005396  0.007458 -0.008777  0.013154
  2H   1py        0.000550  0.003125 -0.008111  0.008213  0.004131 -0.009732
  3H   1s        -0.000618 -0.084643 -0.101184  0.059632  0.142016 -0.014519
  3H   2s        -0.002143 -0.090862 -0.144914  0.085403  0.203395  0.127498
  3H   3s        -0.004359 -0.012747 -0.064421  0.037966  0.090420 -1.675835
  3H   1pz        0.001491  0.008470  0.000483 -0.009294 -0.012323 -0.026384
  3H   1px       -0.000744 -0.004223 -0.009942  0.007666 -0.002041  0.013155
  3H   1py        0.001483  0.008422  0.010303  0.003895 -0.010770 -0.026234
  4H   1s        -0.000618 -0.084643 -0.005155 -0.184117 -0.006078 -0.014519
  4H   2s        -0.002143 -0.090864 -0.007385 -0.263687 -0.008706  0.127496
  4H   3s        -0.004358 -0.012738 -0.003285 -0.117230 -0.003871 -1.675834
  4H   1pz        0.000539  0.003059 -0.010607  0.004787  0.003779 -0.009527
  4H   1px       -0.000744 -0.004223 -0.004597 -0.005904 -0.010286  0.013155
  4H   1py       -0.002033 -0.011547 -0.001715 -0.017508  0.004072  0.035966
                      6         7         8         9        10        11   
                   0.12526   0.12526   0.12526   0.19941   0.19941   0.19941
                   0.00000   0.00000   0.00000   0.00000   0.00000   0.00000
                  --------  --------  --------  --------  --------  --------
  0C   1s         0.000000 -0.000000 -0.000000  0.000000  0.000000 -0.000000
  0C   2s         0.000001 -0.000001  0.000000  0.000000  0.000002 -0.000002
  0C   3s        -0.000008  0.000006 -0.000000 -0.000000 -0.000009  0.000013
  0C   4s         0.000017 -0.000014  0.000001  0.000000  0.000015 -0.000026
  0C   5s        -0.000033  0.000017 -0.000001 -0.000001 -0.000029  0.000053
  0C   1pz       -0.101702  0.129965 -0.170486  0.093705  0.042056 -0.082725
  0C   1px       -0.189695 -0.142459  0.004557  0.000912  0.117139  0.060592
  0C   1py       -0.099864  0.138248  0.164968 -0.092787  0.043623 -0.082949
  0C   2pz       -0.030972  0.039589 -0.051924  0.141106  0.063322 -0.124536
  0C   2px       -0.057773 -0.043392  0.001388  0.001373  0.176370  0.091205
  0C   2py       -0.030412  0.042112  0.050243 -0.139725  0.065681 -0.124872
  0C   3pz       -0.728700  0.931200 -1.221541 -1.279659 -0.574293  1.129568
  0C   3px       -1.359167 -1.020715  0.032649 -0.012448 -1.599557 -0.827358
  0C   3py       -0.715529  0.990545  1.182006  1.267122 -0.595689  1.132615
  0C   1dz2      -0.009180 -0.007402 -0.016002 -0.018823 -0.011534 -0.006250
  0C   1dxz      -0.005680  0.007258 -0.009522 -0.010869 -0.004878  0.009594
  0C   1dyz       0.011258 -0.014975  0.000469  0.000292  0.009935 -0.019212
  0C   1dx2y2     0.015888  0.011639 -0.009747 -0.010656  0.020512  0.010445
  0C   1dxy      -0.005577  0.007721  0.009213  0.010762 -0.005059  0.009620
  0C   2dz2      -0.041486 -0.033451 -0.072306  0.098425  0.060309  0.032679
  0C   2dxz      -0.025666  0.032804 -0.043024  0.056832  0.025502 -0.050159
  0C   2dyz       0.050871 -0.067678  0.002118 -0.001526 -0.051948  0.100449
  0C   2dx2y2     0.071800  0.052599 -0.044046  0.055720 -0.107248 -0.054610
  0C   2dxy      -0.025202  0.034894  0.041632 -0.056275  0.026453 -0.050295
  0C   1f0        0.006297  0.001599  0.002472 -0.003673 -0.009089 -0.000671
  0C   1f+1      -0.004696 -0.003201  0.010497 -0.014628  0.007560  0.003688
  0C   1f-1      -0.005305 -0.005305 -0.000879  0.001534  0.008616  0.006117
  0C   1f+2       0.001691  0.005311 -0.003427  0.004622 -0.003689 -0.007111
  0C   1f-2      -0.007894  0.010502 -0.000329  0.000251  0.008532 -0.016499
  0C   1f+3      -0.006069 -0.004809 -0.007898  0.011449  0.009386  0.005028
  0C   1f-3       0.003925 -0.002167 -0.003993  0.005641 -0.005063  0.003817
  1H   1s         0.046478  0.034906 -0.001116  0.000492  0.063190  0.032687
  1H   2s        -0.149524 -0.112298  0.003592  0.005434  0.698015  0.361042
  1H   3s         2.356654  1.769826 -0.056606  0.003626  0.465782  0.240931
  1H   1pz       -0.006929  0.008854 -0.011615 -0.014496 -0.006505  0.012796
  1H   1px        0.046423  0.034863 -0.001115 -0.000318 -0.040860 -0.021136
  1H   1py       -0.006804  0.009418  0.011239  0.014354 -0.006748  0.012830
  2H   1s        -0.032135  0.008990 -0.047608 -0.058510 -0.035906  0.018679
  2H   2s         0.103374 -0.028922  0.153142 -0.646328 -0.396613  0.206310
  2H   3s        -1.629315  0.455773 -2.413898 -0.431279 -0.264647  0.137659
  2H   1pz        0.030407 -0.001590  0.043699 -0.033658 -0.018264  0.018912
  2H   1px        0.000753 -0.013531  0.020572 -0.007160 -0.022427 -0.007132
  2H   1py       -0.016922  0.012249 -0.003752  0.019547 -0.003562  0.011172
  3H   1s         0.017432 -0.055443  0.001430  0.000358  0.009747 -0.070473
  3H   2s        -0.056073  0.178377 -0.004600  0.003952  0.107685 -0.778456
  3H   3s         0.883898 -2.811180  0.072504  0.002638  0.071854 -0.519490
  3H   1pz        0.007952 -0.038476 -0.010394 -0.014582 -0.008851  0.029751
  3H   1px       -0.020343  0.013893 -0.000298 -0.000098 -0.016950 -0.017826
  3H   1py        0.007993 -0.037642  0.012453  0.014268 -0.009080  0.029689
  4H   1s        -0.031778  0.011550  0.047295  0.057661 -0.037035  0.019113
  4H   2s         0.102225 -0.037157 -0.152133  0.636943 -0.409080  0.211100
  4H   3s        -1.611211  0.585569  2.398001  0.425016 -0.272968  0.140855
  4H   1pz       -0.016724  0.012414  0.002963 -0.019506 -0.003288  0.011135
  4H   1px        0.000601 -0.014621 -0.019818  0.006777 -0.022562 -0.007080
  4H   1py        0.030174 -0.004021 -0.043795  0.033267 -0.018895  0.019098
                     12        13        14        15        16        17   
                   0.39288   0.47259   0.47259   0.47259   0.52612   0.59780
                   0.00000   0.00000   0.00000   0.00000   0.00000   0.00000
                  --------  --------  --------  --------  --------  --------
  0C   1s         0.052647  0.000000  0.000001 -0.000000  0.062808 -0.000000
  0C   2s         0.099657  0.000001  0.000004 -0.000000  0.145165 -0.000000
  0C   3s         0.382144 -0.000002 -0.000014  0.000001 -0.042541  0.000000
  0C   4s        -4.332235 -0.000018  0.000002  0.000000 -1.886602  0.000000
  0C   5s        15.083018  0.000041 -0.000037 -0.000001 -0.122104 -0.000003
  0C   1pz        0.000008  0.079377  0.206952 -0.243484 -0.000008  0.000001
  0C   1px        0.000003 -0.306316  0.120745  0.002779 -0.000002 -0.000001
  0C   1py        0.000008  0.091046  0.225848  0.221626 -0.000008  0.000001
  0C   2pz       -0.000010  0.326165  0.850451 -1.000606 -0.000010  0.000005
  0C   2px       -0.000000 -1.258772  0.496208  0.011420  0.000002 -0.000003
  0C   2py       -0.000010  0.374116  0.928103  0.910782 -0.000010  0.000005
  0C   3pz        0.000011 -0.509250 -1.327837  1.562281  0.000020 -0.000000
  0C   3px       -0.000003  1.965362 -0.774747 -0.017831  0.000001  0.000005
  0C   3py        0.000011 -0.584118 -1.449077 -1.422036  0.000021 -0.000001
  0C   1dz2       0.000000 -0.003352  0.001030 -0.004850 -0.000000  0.002585
  0C   1dxz       0.000000  0.000962  0.002508 -0.002951 -0.000000 -0.016349
  0C   1dyz      -0.000001 -0.002064 -0.005242  0.000313  0.000000 -0.013277
  0C   1dx2y2    -0.000000  0.005488 -0.002331 -0.002867  0.000000  0.001492
  0C   1dxy       0.000000  0.001103  0.002737  0.002686 -0.000000 -0.010153
  0C   2dz2      -0.000000  0.030245 -0.009292  0.043750  0.000000 -0.106272
  0C   2dxz      -0.000003 -0.008684 -0.022627  0.026616  0.000003  0.672225
  0C   2dyz       0.000006  0.018626  0.047299 -0.002825 -0.000004  0.545916
  0C   2dx2y2     0.000001 -0.049517  0.021035  0.025867 -0.000000 -0.061357
  0C   2dxy      -0.000004 -0.009960 -0.024693 -0.024227  0.000004  0.417450
  0C   1f0        0.025476 -0.011034  0.010510 -0.006177  0.024818  0.000000
  0C   1f+1       0.031472  0.012241 -0.006291 -0.024655  0.030659  0.000000
  0C   1f-1      -0.031741  0.017266 -0.004043  0.002192 -0.030921 -0.000000
  0C   1f+2       0.019733 -0.012786 -0.002912  0.008220  0.019224 -0.000000
  0C   1f-2      -0.000000 -0.011370 -0.028882  0.001725  0.000001 -0.000000
  0C   1f+3       0.040631  0.017234 -0.005658  0.018855  0.039581  0.000000
  0C   1f-3       0.008195 -0.000488  0.010893  0.009099  0.007983  0.000000
  1H   1s         0.013275  0.113993 -0.044936 -0.001034  0.083701  0.000001
  1H   2s         0.158068  1.540024 -0.607053 -0.013970  1.237075  0.000004
  1H   3s        -3.622939 -2.967827  1.169912  0.026920 -0.372777 -0.000009
  1H   1pz        0.000000  0.006221  0.016221 -0.019085 -0.000000  0.022672
  1H   1px       -0.061431 -0.071300  0.028106  0.000647 -0.035659 -0.000000
  1H   1py        0.000000  0.007136  0.017702  0.017371 -0.000000  0.014079
  2H   1s         0.013275 -0.019474  0.064333 -0.102454  0.083700 -0.000000
  2H   2s         0.158074 -0.263082  0.869152 -1.384105  1.237063  0.000003
  2H   3s        -3.622945  0.507005 -1.674939  2.667373 -0.372753  0.000003
  2H   1pz        0.055902 -0.001130  0.040508 -0.057761  0.032448  0.000750
  2H   1px        0.020477 -0.026701  0.018360 -0.013949  0.011886 -0.017159
  2H   1py       -0.015150  0.009128  0.011120  0.027853 -0.008794 -0.020427
  3H   1s         0.013276 -0.080266 -0.092384  0.006097  0.083702 -0.000001
  3H   2s         0.158072 -1.084394 -1.248063  0.082369  1.237100 -0.000011
  3H   3s        -3.622962  2.089749  2.405209 -0.158737 -0.372819  0.000007
  3H   1pz       -0.041071  0.028485  0.041845 -0.020776 -0.023841  0.001916
  3H   1px        0.020477 -0.035109 -0.003311  0.001061  0.011886  0.024517
  3H   1py       -0.040837  0.029273  0.043180  0.015690 -0.023705  0.010368
  4H   1s         0.013275 -0.014251  0.072985  0.097391  0.083700 -0.000000
  4H   2s         0.158075 -0.192522  0.986026  1.315703  1.237062  0.000003
  4H   3s        -3.622945  0.371025 -1.900173 -2.535554 -0.372752  0.000002
  4H   1pz       -0.014831  0.007648  0.008911 -0.028838 -0.008608 -0.025337
  4H   1px        0.020477 -0.025979  0.019557  0.013685  0.011886 -0.007358
  4H   1py        0.055987  0.001748  0.045297  0.054192  0.032498 -0.004019
                     18        19        20        21        22        23   
                   0.59780   0.93115   0.93116   0.93116   1.48036   1.48036
                   0.00000   0.00000   0.00000   0.00000   0.00000   0.00000
                  --------  --------  --------  --------  --------  --------
  0C   1s        -0.000000 -0.000000 -0.000000  0.000001 -0.000001  0.000138
  0C   2s        -0.000000 -0.000000 -0.000002  0.000003 -0.000004  0.000431
  0C   3s        -0.000000  0.000000  0.000011 -0.000026  0.000042 -0.004562
  0C   4s         0.000001 -0.000001 -0.000013  0.000046 -0.000104  0.011265
  0C   5s         0.000005 -0.000000 -0.000022  0.000005  0.000112 -0.012098
  0C   1pz       -0.000000  0.145131  0.061583 -0.129414  0.800522 -0.460017
  0C   1px       -0.000000  0.002028  0.183281  0.089469  0.007854 -0.921026
  0C   1py        0.000000 -0.143328  0.064951 -0.129776 -0.799680 -0.469548
  0C   2pz        0.000002  1.180143  0.500830 -1.052563 -2.488605  1.430064
  0C   2px       -0.000001  0.016490  1.490511  0.727742 -0.024416  2.863215
  0C   2py        0.000001 -1.165480  0.528218 -1.055508  2.485984  1.459693
  0C   3pz       -0.000001  0.637322  0.270460 -0.568414  0.892462 -0.512862
  0C   3px        0.000001  0.008904  0.804925  0.393000  0.008756 -1.026831
  0C   3py        0.000001 -0.629403  0.285251 -0.570004 -0.891523 -0.523488
  0C   1dz2      -0.011498 -0.003647 -0.002246 -0.001157  0.021137 -0.011877
  0C   1dxz       0.010153 -0.002104 -0.000893  0.001878  0.012151 -0.006982
  0C   1dyz      -0.002985  0.000062  0.001835 -0.003760 -0.000221  0.014107
  0C   1dx2y2    -0.006639 -0.002047  0.004019  0.001929  0.011965  0.021103
  0C   1dxy      -0.016349  0.002078 -0.000942  0.001883 -0.012138 -0.007127
  0C   2dz2       0.472772 -1.549368 -0.953986 -0.491140  1.037913 -0.583195
  0C   2dxz      -0.417455 -0.893910 -0.379345  0.797258  0.596648 -0.342854
  0C   2dyz       0.122717  0.026329  0.779243 -1.596662 -0.010848  0.692733
  0C   2dx2y2     0.272958 -0.869538  1.707200  0.818867  0.587525  1.036203
  0C   2dxy       0.672225  0.882810 -0.400104  0.799487 -0.596023 -0.349967
  0C   1f0        0.000000  0.022273  0.054669  0.002765 -0.020387  0.049556
  0C   1f+1      -0.000000  0.087818 -0.046263 -0.021131 -0.081537 -0.038731
  0C   1f-1       0.000000 -0.009404 -0.052625 -0.035584  0.008587 -0.042574
  0C   1f+2      -0.000000 -0.027716  0.023263  0.042247  0.025651  0.014572
  0C   1f-2      -0.000000 -0.001655 -0.048999  0.100399  0.000941 -0.060145
  0C   1f+3       0.000000 -0.069050 -0.056909 -0.028914  0.063825 -0.048153
  0C   1f-3      -0.000000 -0.033832  0.030021 -0.023649  0.031585  0.030840
  1H   1s         0.000000  0.000633  0.057205  0.027929 -0.000557  0.065273
  1H   2s        -0.000000 -0.032103 -2.901303 -1.416536  0.021068 -2.469742
  1H   3s        -0.000003  0.002136  0.193009  0.094215 -0.011149  1.306776
  1H   1pz       -0.014080  0.015700  0.006663 -0.014003 -0.164232  0.094378
  1H   1px        0.000000  0.002802  0.253266  0.123659 -0.004090  0.479539
  1H   1py        0.022672 -0.015505  0.007027 -0.014042  0.164059  0.096332
  2H   1s         0.000000 -0.052459 -0.031558  0.017457  0.065765 -0.043184
  2H   2s        -0.000000  2.660594  1.600649 -0.885533 -2.487548  1.632447
  2H   3s        -0.000001 -0.176994 -0.106476  0.058906  1.314286 -0.860664
  2H   1pz       -0.011040  0.210499  0.123856 -0.078839 -0.430388  0.268873
  2H   1px        0.018403  0.071575  0.062759 -0.014068 -0.099105  0.252874
  2H   1py       -0.015864 -0.068298 -0.024733  0.003528  0.236192  0.049040
  3H   1s        -0.000000  0.000336  0.007261 -0.063249 -0.000070  0.022172
  3H   2s        -0.000004 -0.017017 -0.368153  3.207709  0.002668 -0.839561
  3H   3s         0.000001  0.001131  0.024497 -0.213373 -0.001427  0.445453
  3H   1pz        0.019754  0.016616  0.026467 -0.186554 -0.164442  0.160499
  3H   1px        0.005658 -0.000237  0.009956  0.095712 -0.001506  0.155988
  3H   1py       -0.017029 -0.014595  0.026719 -0.185611  0.163849  0.162078
  4H   1s        -0.000000  0.051490 -0.032903  0.017855 -0.065139 -0.044181
  4H   2s        -0.000000 -2.611473  1.668820 -0.905678  2.463873  1.670160
  4H   3s         0.000000  0.173727 -0.111010  0.060247 -1.301812 -0.880590
  4H   1pz        0.005366  0.066425 -0.025752  0.003587 -0.234172  0.047012
  4H   1px       -0.024062 -0.069820  0.064588 -0.014608  0.094956  0.254352
  4H   1py        0.010222 -0.207000  0.129399 -0.080455  0.428089  0.275137
                     24        25        26        27        28        29   
                   1.48037   1.48474   1.53273   1.53273   1.53273   1.95408
                   0.00000   0.00000   0.00000   0.00000   0.00000   0.00000
                  --------  --------  --------  --------  --------  --------
  0C   1s        -0.000154  0.120991 -0.000000 -0.000000 -0.000000 -0.003132
  0C   2s        -0.000482  0.376358 -0.000001 -0.000000 -0.000000  0.036655
  0C   3s         0.005102 -3.992291  0.000015  0.000002  0.000002  0.055593
  0C   4s        -0.012615  9.886603 -0.000041 -0.000005 -0.000005 -1.952497
  0C   5s         0.013546-10.644625  0.000042  0.000005  0.000005 -0.832861
  0C   1pz        0.654160  0.001367  0.000002 -0.000002 -0.000001 -0.000013
  0C   1px       -0.657287  0.000213 -0.000002 -0.000000  0.000001  0.000001
  0C   1py        0.648394  0.001354  0.000001  0.000001  0.000002 -0.000013
  0C   2pz       -2.033599 -0.004250 -0.000006  0.000006  0.000003  0.000014
  0C   2px        2.043324 -0.000663  0.000006  0.000000 -0.000002 -0.000008
  0C   2py       -2.015673 -0.004208 -0.000002 -0.000003 -0.000005  0.000015
  0C   3pz        0.729336  0.001540  0.000002 -0.000003 -0.000002 -0.000009
  0C   3px       -0.732822  0.000241 -0.000003 -0.000000  0.000001  0.000004
  0C   3py        0.722907  0.001525  0.000001  0.000002  0.000003 -0.000009
  0C   1dz2      -0.008710  0.000003  0.000000 -0.000000 -0.000000 -0.000000
  0C   1dxz       0.009928  0.000020  0.000000 -0.000000 -0.000000 -0.000005
  0C   1dyz      -0.019768 -0.000040  0.000000  0.000000 -0.000000  0.000010
  0C   1dx2y2     0.014922 -0.000005 -0.000000 -0.000000 -0.000000  0.000001
  0C   1dxy       0.009841  0.000020  0.000000 -0.000000  0.000000 -0.000005
  0C   2dz2      -0.427731  0.000131  0.000001 -0.000001 -0.000000  0.000004
  0C   2dxz       0.487552  0.001017  0.000001 -0.000002 -0.000000  0.000023
  0C   2dyz      -0.970804 -0.002024 -0.000002  0.000001 -0.000001 -0.000038
  0C   2dx2y2     0.732817 -0.000241  0.000001 -0.000001 -0.000001 -0.000008
  0C   2dxy       0.483251  0.001008  0.000000  0.000001  0.000001  0.000022
  0C   1f0        0.010953 -0.101702 -0.022102  0.029789 -0.019679  0.209383
  0C   1f+1      -0.026464 -0.125577 -0.000315 -0.000850  0.017046  0.258662
  0C   1f-1      -0.040706  0.126655 -0.010332  0.034988  0.010173 -0.260869
  0C   1f+2       0.042349 -0.078707  0.025581  0.022989  0.028415  0.162182
  0C   1f-2       0.084289  0.000175 -0.021562 -0.001015 -0.000450 -0.000009
  0C   1f+3      -0.034735 -0.162121  0.000246  0.000658 -0.013203  0.333932
  0C   1f-3      -0.016896 -0.032759 -0.032899 -0.012446  0.032154  0.067358
  1H   1s         0.046541  0.022564 -0.000001 -0.000000 -0.000000 -0.563842
  1H   2s        -1.759440 -1.474487  0.000004  0.000000  0.000003  1.551555
  1H   3s         0.927569  2.415917 -0.000007 -0.000001 -0.000002 -0.135020
  1H   1pz       -0.134210 -0.000282  0.426360 -0.000851  0.435913 -0.000027
  1H   1px        0.341517  0.337723 -0.000001 -0.000000 -0.000002 -0.217067
  1H   1py       -0.133027 -0.000280  0.434932  0.041731 -0.425319 -0.000026
  2H   1s         0.015299  0.022649 -0.000000 -0.000001 -0.000001 -0.563855
  2H   2s        -0.577665 -1.477685  0.000004  0.000007  0.000004  1.551548
  2H   3s         0.303144  2.417622 -0.000008 -0.000006 -0.000005 -0.135030
  2H   1pz       -0.195828 -0.307988 -0.149329  0.150309 -0.137957  0.197504
  2H   1px        0.112279 -0.112755  0.280719 -0.011066  0.501565  0.072352
  2H   1py       -0.116327  0.083110 -0.171587  0.539656  0.168878 -0.053554
  3H   1s        -0.077068  0.022457 -0.000001  0.000000 -0.000000 -0.563817
  3H   2s         2.915949 -1.470397  0.000013 -0.000001  0.000001  1.551530
  3H   3s        -1.542801  2.413741 -0.000013 -0.000000 -0.000002 -0.134982
  3H   1pz       -0.363576  0.225214 -0.161561  0.404676 -0.125503 -0.145137
  3H   1px        0.249210 -0.112475 -0.574176 -0.027174 -0.008702  0.072345
  3H   1py       -0.361087  0.223932 -0.125430 -0.420619  0.121858 -0.144311
  4H   1s         0.015132  0.022648 -0.000001  0.000001  0.000001 -0.563855
  4H   2s        -0.571328 -1.477667  0.000008 -0.000003 -0.000005  1.551548
  4H   3s         0.299795  2.417612 -0.000010  0.000002  0.000004 -0.135030
  4H   1pz       -0.118043  0.081348 -0.115472 -0.554130 -0.172453 -0.052425
  4H   1px        0.112527 -0.112756  0.293457  0.038240 -0.492862  0.072353
  4H   1py       -0.194060 -0.308455 -0.137917 -0.160771  0.134582  0.197807
                     30        31        32        33        34        35   
                   1.98940   1.98940   1.98940   2.23715   2.23715   2.23716
                   0.00000   0.00000   0.00000   0.00000   0.00000   0.00000
                  --------  --------  --------  --------  --------  --------
  0C   1s         0.000000  0.000000  0.000001 -0.000000  0.000000 -0.000000
  0C   2s         0.000002  0.000002  0.000004  0.000000  0.000000 -0.000001
  0C   3s        -0.000010 -0.000008 -0.000020 -0.000002 -0.000001  0.000009
  0C   4s        -0.000029 -0.000019 -0.000028  0.000005  0.000002 -0.000019
  0C   5s        -0.000076 -0.000056 -0.000114 -0.000015 -0.000006  0.000044
  0C   1pz       -0.025882  0.428091  0.278941  0.066768 -0.272480 -0.334230
  0C   1px        0.340278  0.222787 -0.310350  0.431004  0.031358  0.060540
  0C   1py        0.381154 -0.169826  0.296008  0.013783  0.339383 -0.273938
  0C   2pz        0.053937 -0.892151 -0.581337 -0.104605  0.426893  0.523658
  0C   2px       -0.709154 -0.464298  0.646784 -0.675270 -0.049129 -0.094853
  0C   2py       -0.794333  0.353920 -0.616904 -0.021593 -0.531714  0.429199
  0C   3pz       -0.034457  0.569970  0.371403 -0.010692  0.043641  0.053511
  0C   3px        0.453059  0.296627 -0.413218 -0.069012 -0.005023 -0.009679
  0C   3py        0.507477 -0.226108  0.394126 -0.002206 -0.054352  0.043854
  0C   1dz2      -0.013997  0.164160 -0.066655 -0.106512  0.128057 -0.001201
  0C   1dxz      -0.005995  0.099144  0.064601 -0.016990  0.069342  0.085054
  0C   1dyz      -0.081468 -0.060997 -0.133115  0.020612  0.015691 -0.154893
  0C   1dx2y2    -0.165695 -0.008417  0.105265  0.157870  0.089893  0.030115
  0C   1dxy       0.088274 -0.039331  0.068553 -0.003507 -0.086368  0.069711
  0C   2dz2       0.042972 -0.503963  0.204628  0.005933 -0.007126  0.000066
  0C   2dxz       0.018400 -0.304366 -0.198317  0.000945 -0.003866 -0.004738
  0C   2dyz       0.250104  0.187257  0.408650 -0.001149 -0.000875  0.008635
  0C   2dx2y2     0.508675  0.025838 -0.323156 -0.008795 -0.005003 -0.001675
  0C   2dxy      -0.271000  0.120742 -0.210451  0.000193  0.004814 -0.003883
  0C   1f0       -0.060307 -0.089529  0.026304  0.160315 -0.045418 -0.048204
  0C   1f+1       0.156617 -0.095813 -0.051929 -0.122890 -0.267828 -0.043485
  0C   1f-1       0.061267  0.059366 -0.085442 -0.181460  0.015230 -0.048663
  0C   1f+2      -0.052727  0.030085  0.085167  0.095796  0.080661  0.104752
  0C   1f-2       0.102133  0.076469  0.166885 -0.043043 -0.032766  0.323446
  0C   1f+3       0.007769  0.158733 -0.077467 -0.204028  0.185690 -0.008341
  0C   1f-3      -0.088104  0.016879 -0.034076  0.051637  0.113874 -0.082521
  1H   1s        -0.345201 -0.226013  0.314794  0.902555  0.065666  0.126760
  1H   2s         0.557793  0.365203 -0.508630 -1.002680 -0.072951 -0.140817
  1H   3s        -0.740755 -0.484990  0.675624  0.680655  0.049524  0.095570
  1H   1pz       -0.027174  0.449506  0.292887  0.068928 -0.281292 -0.345040
  1H   1px        0.146807  0.096117 -0.133906  0.218163  0.015873  0.030642
  1H   1py        0.400223 -0.178319  0.310808  0.014229  0.350359 -0.282798
  2H   1s        -0.004203  0.512975  0.078476 -0.420963  0.672618  0.453174
  2H   2s         0.006806 -0.828847 -0.126786  0.467665 -0.747248 -0.503443
  2H   3s        -0.008972  1.100873  0.168472 -0.317462  0.507261  0.341747
  2H   1pz       -0.024850  0.164859  0.249336 -0.027326 -0.127505 -0.241420
  2H   1px        0.358150  0.129666 -0.341821  0.409688  0.088702  0.100451
  2H   1py        0.399589 -0.101180  0.322612  0.040311  0.308686 -0.310876
  3H   1s        -0.124428 -0.100489 -0.493751 -0.188195  0.069070 -0.891512
  3H   2s         0.201065  0.162381  0.797845  0.209073 -0.076731  0.990397
  3H   3s        -0.266982 -0.215621 -1.059546 -0.141921  0.052089 -0.672318
  3H   1pz       -0.077900  0.408542  0.091598  0.100542 -0.292902 -0.195271
  3H   1px        0.382591  0.254358 -0.225510  0.429183  0.038158 -0.012179
  3H   1py        0.349787 -0.219054  0.110665  0.045662  0.338828 -0.133881
  4H   1s         0.473762 -0.186523  0.100389 -0.293401 -0.807356  0.311584
  4H   2s        -0.765482  0.301391 -0.162192  0.325950  0.896932 -0.346143
  4H   3s         1.016736 -0.400241  0.215498 -0.221260 -0.608869  0.234966
  4H   1pz        0.042565  0.422048  0.307668  0.086723 -0.232326 -0.363938
  4H   1px        0.261002  0.271841 -0.346275  0.420370 -0.035243  0.088593
  4H   1py        0.136929 -0.074668  0.255012 -0.052961  0.165481 -0.211442
                     36        37        38        39        40        41   
                   2.40715   2.40715   2.57297   2.57297   2.57297   2.97288
                   0.00000   0.00000   0.00000   0.00000   0.00000   0.00000
                  --------  --------  --------  --------  --------  --------
  0C   1s         0.000000  0.000000  0.000000 -0.000000 -0.000000  0.000000
  0C   2s        -0.000000 -0.000000  0.000000 -0.000000 -0.000000  0.000002
  0C   3s        -0.000003 -0.000000 -0.000000  0.000001  0.000006  0.000001
  0C   4s         0.000013  0.000002  0.000000  0.000002 -0.000019 -0.000041
  0C   5s        -0.000019 -0.000001 -0.000001  0.000001  0.000037  0.000019
  0C   1pz       -0.000003  0.000003 -0.139952 -0.045084 -0.144228  0.000000
  0C   1px       -0.000002 -0.000000 -0.007866  0.198493 -0.054410  0.000000
  0C   1py       -0.000002 -0.000004  0.150898 -0.031468 -0.136603 -0.000000
  0C   2pz       -0.000020 -0.000003 -2.264646 -0.729502 -2.333701  0.000000
  0C   2px       -0.000015 -0.000002 -0.127277  3.211772 -0.880480  0.000000
  0C   2py       -0.000019 -0.000001  2.441762 -0.509169 -2.210315 -0.000001
  0C   3pz        0.000001  0.000001  0.008125  0.002612  0.008358  0.000000
  0C   3px        0.000000 -0.000000  0.000456 -0.011504  0.003163 -0.000000
  0C   3py        0.000001 -0.000001 -0.008759  0.001822  0.007915 -0.000000
  0C   1dz2       0.015271 -0.128031 -0.279380  0.173465 -0.055756  0.575527
  0C   1dxz       0.131616  0.164350 -0.151099 -0.048674 -0.155709 -0.621036
  0C   1dyz       0.147840  0.017634 -0.009126  0.082769  0.303240  0.037493
  0C   1dx2y2     0.008819 -0.073919 -0.144314 -0.328437  0.085303  0.332284
  0C   1dxy       0.164349 -0.131617  0.162918 -0.033971 -0.147478  0.707399
  0C   2dz2      -0.083313  0.698500  1.347424 -0.836611  0.268907 -0.180755
  0C   2dxz      -0.718060 -0.896655  0.728736  0.234752  0.750972  0.195047
  0C   2dyz      -0.806578 -0.096206  0.044016 -0.399190 -1.462508 -0.011775
  0C   2dx2y2    -0.048113  0.403282  0.696014  1.584027 -0.411407 -0.104360
  0C   2dxy      -0.896644  0.718068 -0.785735  0.163841  0.711275 -0.222171
  0C   1f0       -0.000001  0.000001 -0.072168  0.133472 -0.110471  0.000000
  0C   1f+1       0.000000  0.000002 -0.274146 -0.165417  0.036900  0.000001
  0C   1f-1      -0.000000  0.000000  0.036708 -0.198859  0.026543 -0.000002
  0C   1f+2       0.000001 -0.000000  0.080501  0.147327  0.054991  0.000000
  0C   1f-2       0.000004  0.000000 -0.010299  0.093397  0.342180 -0.000000
  0C   1f+3       0.000001 -0.000001  0.224873 -0.187768  0.058019  0.000001
  0C   1f-3      -0.000002 -0.000002  0.110603  0.026306 -0.115552  0.000001
  1H   1s        -0.000003 -0.000000 -0.004132  0.104271 -0.028583 -0.000001
  1H   2s         0.000020  0.000003  0.148912 -3.757523  1.030087  0.000013
  1H   3s         0.000000 -0.000000 -0.026176  0.660522 -0.181092 -0.000005
  1H   1pz        0.485857  0.606695  0.177621  0.057220  0.183029  0.092501
  1H   1px       -0.000007 -0.000003 -0.057343  1.446936 -0.396661 -0.000008
  1H   1py        0.606692 -0.485860 -0.191512  0.039934  0.173353 -0.105365
  2H   1s         0.000000 -0.000004  0.087831 -0.017282  0.060778 -0.000000
  2H   2s        -0.000025  0.000007 -3.165089  0.622772 -2.190118  0.000014
  2H   3s         0.000008 -0.000002  0.556393 -0.109476  0.384989 -0.000005
  2H   1pz       -0.086612  0.310435 -1.124556  0.313436 -0.718018  0.057871
  2H   1px       -0.292507 -0.671900 -0.467013 -0.158051 -0.260999 -0.110157
  2H   1py       -0.714892  0.237303  0.161395 -0.029505  0.417561  0.064613
  3H   1s        -0.000003 -0.000000  0.004920 -0.061580 -0.088829 -0.000001
  3H   2s         0.000026  0.000003 -0.177296  2.219094  3.200998  0.000013
  3H   3s        -0.000003 -0.000001  0.031167 -0.390086 -0.562697 -0.000005
  3H   1pz        0.244347 -0.523819  0.231210 -0.613550 -0.784534 -0.100728
  3H   1px        0.728136  0.082638 -0.016737  0.082529  0.551460 -0.008196
  3H   1py        0.119352  0.568255 -0.138225 -0.627012 -0.788702  0.097184
  4H   1s        -0.000001  0.000004 -0.088619 -0.025409  0.056639 -0.000000
  4H   2s        -0.000021 -0.000012  3.193473  0.915651 -2.040971  0.000012
  4H   3s         0.000007  0.000003 -0.561383 -0.160961  0.358770 -0.000005
  4H   1pz       -0.643608 -0.393302 -0.170940 -0.042727  0.405808 -0.049643
  4H   1px       -0.435635  0.589263  0.491260 -0.113911 -0.238525  0.118361
  4H   1py       -0.011165 -0.319710  1.124353  0.417228 -0.667619 -0.056433
                     42        43        44        45        46        47   
                   2.97288   2.99711   3.36122   3.36123   3.36123   3.49686
                   0.00000   0.00000   0.00000   0.00000   0.00000   0.00000
                  --------  --------  --------  --------  --------  --------
  0C   1s         0.000000  0.079539  0.000000 -0.000000  0.000000  0.000000
  0C   2s         0.000001  0.244577  0.000000 -0.000000  0.000000  0.000000
  0C   3s         0.000000  0.148934  0.000000 -0.000000  0.000001  0.000001
  0C   4s        -0.000028 -6.684772 -0.000000  0.000000 -0.000003 -0.000006
  0C   5s         0.000013  3.224036  0.000000 -0.000000  0.000003  0.000002
  0C   1pz        0.000000  0.000000  0.000000 -0.000000  0.000001  0.024725
  0C   1px       -0.000001  0.000001 -0.000000 -0.000000  0.000000  0.279154
  0C   1py        0.000000  0.000000 -0.000000  0.000000  0.000001  0.028257
  0C   2pz        0.000003  0.000001  0.000000  0.000000  0.000002  0.064060
  0C   2px       -0.000001  0.000002 -0.000000 -0.000000 -0.000001  0.723265
  0C   2py        0.000003  0.000001 -0.000000 -0.000000  0.000002  0.073213
  0C   3pz       -0.000001  0.000002  0.000001  0.000001 -0.000001 -0.049037
  0C   3px       -0.000000  0.000002  0.000000  0.000000  0.000000 -0.553656
  0C   3py       -0.000001  0.000002 -0.000000 -0.000001 -0.000001 -0.056042
  0C   1dz2       0.032466 -0.000003 -0.000001  0.000001 -0.000000 -0.454559
  0C   1dxz      -0.707401  0.000007  0.000000  0.000000 -0.000001 -0.047158
  0C   1dyz      -0.664563  0.000003 -0.000000 -0.000000  0.000002  0.101000
  0C   1dx2y2     0.018745 -0.000002 -0.000001  0.000001  0.000000  0.802529
  0C   1dxy      -0.621034 -0.000002  0.000000  0.000000 -0.000001 -0.053902
  0C   2dz2      -0.010196 -0.000000 -0.000000 -0.000003 -0.000000  0.386407
  0C   2dxz       0.222172 -0.000004 -0.000001 -0.000000  0.000000  0.040087
  0C   2dyz       0.208718 -0.000002  0.000000 -0.000000  0.000000 -0.085858
  0C   2dx2y2    -0.005888  0.000002 -0.000000 -0.000002 -0.000000 -0.682206
  0C   2dxy       0.195047 -0.000001  0.000001  0.000000  0.000001  0.045819
  0C   1f0        0.000000  0.142794 -0.405232  0.776766 -0.521066 -0.311913
  0C   1f+1       0.000001  0.176402 -0.184305 -0.371014 -0.009613  0.297807
  0C   1f-1      -0.000001 -0.177908 -0.865285  0.202570 -0.235716  0.361442
  0C   1f+2       0.000001  0.110607 -0.814873 -0.336983  0.628771 -0.208831
  0C   1f-2       0.000001  0.000000  0.019208  0.004040 -0.523785  0.087748
  0C   1f+3       0.000001  0.227735  0.142759  0.287380  0.007449  0.373676
  0C   1f-3      -0.000000  0.045935 -0.129442 -0.818663 -0.807156 -0.123913
  1H   1s         0.000000 -0.093972 -0.000000 -0.000000  0.000001  0.514092
  1H   2s         0.000010  2.129653  0.000000  0.000000  0.000000 -0.809695
  1H   3s        -0.000003 -0.876346 -0.000000 -0.000000 -0.000001  0.710007
  1H   1pz        0.105364 -0.000003  0.180778  0.338712 -0.372532 -0.030293
  1H   1px       -0.000006 -1.190792 -0.000001 -0.000001 -0.000000  0.719857
  1H   1py        0.092500  0.000002 -0.155943 -0.338687 -0.383614 -0.034624
  2H   1s        -0.000002 -0.093972  0.000002  0.000002  0.000001 -0.199964
  2H   2s         0.000011  2.129658 -0.000000 -0.000001  0.000001  0.314947
  2H   3s        -0.000005 -0.876344  0.000001  0.000001 -0.000001 -0.276169
  2H   1pz       -0.005624  1.083603  0.057806 -0.171655  0.128054  0.345569
  2H   1px       -0.073066  0.396930  0.202962  0.391749 -0.244391 -0.204367
  2H   1py       -0.119533 -0.293672  0.487622 -0.103887  0.142172 -0.136489
  3H   1s         0.000001 -0.093972 -0.000000 -0.000000  0.000001 -0.106327
  3H   2s         0.000005  2.129655  0.000000  0.000000 -0.000003  0.167466
  3H   3s        -0.000002 -0.876347 -0.000000 -0.000000  0.000001 -0.146850
  3H   1pz        0.026944 -0.796124  0.257986 -0.271266  0.134626 -0.177134
  3H   1px        0.131935  0.396932 -0.017198 -0.001306  0.504073 -0.268837
  3H   1py        0.039054 -0.791593 -0.268087  0.272164  0.117365 -0.180627
  4H   1s        -0.000002 -0.093972 -0.000001 -0.000002  0.000001 -0.207799
  4H   2s         0.000011  2.129658  0.000000 -0.000000  0.000001  0.327287
  4H   3s        -0.000004 -0.876344 -0.000001 -0.000001 -0.000001 -0.286990
  4H   1pz       -0.126684 -0.287476 -0.496568  0.104209  0.109854 -0.133919
  4H   1px       -0.058865  0.396932 -0.185764 -0.390442 -0.259681 -0.198971
  4H   1py       -0.012022  1.085262 -0.063594  0.170408  0.124079  0.356566
                     48        49        50        51        52        53   
                   3.49686   3.49686   4.19155   4.19155   4.19155   4.46443
                   0.00000   0.00000   0.00000   0.00000   0.00000   0.00000
                  --------  --------  --------  --------  --------  --------
  0C   1s         0.000000  0.000000  0.000000  0.000000 -0.000001  0.048882
  0C   2s         0.000000  0.000000  0.000000  0.000000 -0.000001  0.063384
  0C   3s        -0.000000 -0.000001  0.000003  0.000001 -0.000013  1.558480
  0C   4s        -0.000001  0.000000 -0.000017 -0.000004  0.000064 -7.417310
  0C   5s         0.000000 -0.000005  0.000008  0.000003 -0.000044  5.143407
  0C   1pz        0.198705 -0.198094 -0.021160 -0.033989  0.024182 -0.000001
  0C   1px        0.002606  0.037456 -0.036467  0.001905 -0.029228  0.000000
  0C   1py       -0.199615 -0.196702 -0.020255  0.032077  0.027359 -0.000001
  0C   2pz        0.514834 -0.513254 -1.462035 -2.348498  1.670973  0.000025
  0C   2px        0.006752  0.097049 -2.519702  0.131637 -2.019630 -0.000014
  0C   2py       -0.517191 -0.509647 -1.399530  2.216386  1.890525  0.000024
  0C   3pz       -0.394101  0.392891  0.204892  0.329125 -0.234175 -0.000007
  0C   3px       -0.005169 -0.074289  0.353119 -0.018448  0.283037  0.000003
  0C   3py        0.395906  0.390131  0.196132 -0.310610 -0.264943 -0.000007
  0C   1dz2      -0.662297 -0.065163  0.370971  0.642816  0.329196  0.000002
  0C   1dxz      -0.379028  0.377865  0.244857  0.393323 -0.279854 -0.000003
  0C   1dyz       0.004775 -0.753073 -0.479323 -0.028676  0.596137  0.000007
  0C   1dx2y2    -0.372430  0.105274 -0.629817  0.415219 -0.486429 -0.000004
  0C   1dxy       0.380765  0.375211  0.234395 -0.371199 -0.316622 -0.000003
  0C   2dz2       0.562997  0.055392  0.687505  1.191312  0.610088  0.000003
  0C   2dxz       0.322199 -0.321210  0.453786  0.728933 -0.518647 -0.000007
  0C   2dyz      -0.004059  0.640160 -0.888316 -0.053144  1.104805  0.000013
  0C   2dx2y2     0.316590 -0.089489 -1.167214  0.769512 -0.901483 -0.000005
  0C   2dxy      -0.323676 -0.318954  0.434396 -0.687931 -0.586788 -0.000007
  0C   1f0       -0.130300  0.087419 -0.486932 -0.184462 -0.144224  0.674047
[...]
   => Polarizability derivatives done in       9.1 sec
Dipole derivatives                                 ... done (  0.0 sec)
Mass weighting the Hessian           ... done
Calculating normal modes             ... done
Scaling frequencies                  ... done

-----------------------
VIBRATIONAL FREQUENCIES
-----------------------

Scaling factor for frequencies =  1.000000000  (already applied!)

     0:       0.00 cm**-1
     1:       0.00 cm**-1
     2:       0.00 cm**-1
     3:       0.00 cm**-1
     4:       0.00 cm**-1
     5:       0.00 cm**-1
     6:    1339.88 cm**-1
     7:    1339.88 cm**-1
     8:    1339.89 cm**-1
     9:    1555.37 cm**-1
    10:    1555.37 cm**-1
    11:    3029.33 cm**-1
    12:    3131.36 cm**-1
    13:    3131.36 cm**-1
    14:    3131.37 cm**-1


------------
NORMAL MODES
------------

These modes are the Cartesian displacements weighted by the diagonal matrix
M(i,i)=1/sqrt(m[i]) where m[i] is the mass of the displaced atom
Thus, these vectors are normalized but *not* orthogonal

                  0          1          2          3          4          5    
      0       0.000000   0.000000   0.000000   0.000000   0.000000   0.000000
      1       0.000000   0.000000   0.000000   0.000000   0.000000   0.000000
      2       0.000000   0.000000   0.000000   0.000000   0.000000   0.000000
      3       0.000000   0.000000   0.000000   0.000000   0.000000   0.000000
      4       0.000000   0.000000   0.000000   0.000000   0.000000   0.000000
      5       0.000000   0.000000   0.000000   0.000000   0.000000   0.000000
      6       0.000000   0.000000   0.000000   0.000000   0.000000   0.000000
      7       0.000000   0.000000   0.000000   0.000000   0.000000   0.000000
      8       0.000000   0.000000   0.000000   0.000000   0.000000   0.000000
      9       0.000000   0.000000   0.000000   0.000000   0.000000   0.000000
     10       0.000000   0.000000   0.000000   0.000000   0.000000   0.000000
     11       0.000000   0.000000   0.000000   0.000000   0.000000   0.000000
     12       0.000000   0.000000   0.000000   0.000000   0.000000   0.000000
     13       0.000000   0.000000   0.000000   0.000000   0.000000   0.000000
     14       0.000000   0.000000   0.000000   0.000000   0.000000   0.000000
                  6          7          8          9         10         11    
      0       0.006856  -0.124801  -0.003464  -0.000000   0.000001   0.000002
      1      -0.088194  -0.002386  -0.088603   0.000001   0.000001  -0.000001
      2       0.088369   0.007302  -0.088158  -0.000001   0.000001  -0.000001
      3       0.004985  -0.090719  -0.002518  -0.000001   0.000001  -0.500025
      4       0.426132   0.011531   0.428120  -0.353086   0.354018   0.000001
      5      -0.426982  -0.035280   0.425970   0.354028   0.353076  -0.000001
      6       0.160402   0.539336  -0.093561  -0.409234  -0.233993   0.166665
      7       0.282951   0.058638   0.509709   0.201694  -0.440590  -0.123308
      8       0.101363  -0.209123   0.124860   0.204566  -0.033692   0.454986
      9      -0.029734   0.519830   0.232952   0.001976   0.471393   0.166662
     10       0.419370   0.177432  -0.003059   0.355046   0.116028  -0.332367
     11      -0.433799   0.131573  -0.007679  -0.352040   0.119664  -0.334270
     12      -0.217352   0.518637  -0.095594   0.407260  -0.237412   0.166668
     13      -0.077567  -0.219171   0.120993  -0.203666  -0.029469   0.455688
     14      -0.293562   0.025825   0.507309  -0.206543  -0.439062  -0.120708
                 12         13         14    
      0      -0.078998  -0.027881  -0.037848
      1      -0.046742   0.054458   0.057446
      2      -0.004998  -0.068611   0.060976
      3       0.740662   0.261402   0.354837
      4      -0.010263   0.011955   0.012611
      5      -0.001097  -0.015062   0.013387
      6       0.044562   0.266256  -0.100112
      7      -0.056061  -0.189564   0.080532
      8       0.167899   0.728515  -0.237236
      9      -0.043186  -0.007321   0.284580
     10       0.041278   0.014348  -0.571485
     11       0.050737  -0.012655  -0.574055
     12       0.199279  -0.188117  -0.088324
     13       0.582005  -0.485644  -0.206162
     14      -0.157983   0.116747   0.071336


-----------
IR SPECTRUM
-----------

 Mode   freq       eps      Int      T**2         TX        TY        TZ
       cm**-1   L/(mol*cm) km/mol    a.u.
----------------------------------------------------------------------------
  6:   1339.88   0.002849   14.40  0.000663  (-0.001412  0.018168 -0.018205)
  7:   1339.88   0.002849   14.40  0.000664  ( 0.025711  0.000492 -0.001504)
  8:   1339.89   0.002849   14.40  0.000664  ( 0.000714  0.018253  0.018161)
  9:   1555.37   0.000000    0.00  0.000000  ( 0.000000  0.000001 -0.000001)
 10:   1555.37   0.000000    0.00  0.000000  (-0.000000 -0.000001 -0.000001)
 11:   3029.33   0.000000    0.00  0.000000  ( 0.000000 -0.000002 -0.000002)
 12:   3131.36   0.004780   24.15  0.000476  (-0.018756 -0.011097 -0.001188)
 13:   3131.36   0.004778   24.15  0.000476  (-0.006619  0.012927 -0.016287)
 14:   3131.37   0.004779   24.15  0.000476  (-0.008985  0.013638  0.014476)

* The epsilon (eps) is given for a Dirac delta lineshape.
** The dipole moment derivative (T) already includes vibrational overlap.

--------------
RAMAN SPECTRUM  
--------------

 Mode    freq (cm**-1)   Activity   Depolarization
-------------------------------------------------------------------
   6:      1339.88      0.317406      0.750000
   7:      1339.88      0.317297      0.750000
   8:      1339.89      0.317257      0.750000
   9:      1555.37     17.300361      0.750000
  10:      1555.37     17.300695      0.750000
  11:      3029.33    161.869956      0.000000
  12:      3131.36     57.839414      0.750000
  13:      3131.36     57.843309      0.750000
  14:      3131.37     57.840393      0.750000

The first frequency considered to be a vibration is 6
The total number of vibrations considered is 9


--------------------------
THERMOCHEMISTRY AT 298.15K
--------------------------

Temperature         ...   298.15 K
Pressure            ...     1.00 atm
Total Mass          ...    16.04 AMU
Quasi RRHO          ...     True
Cut-Off Frequency   ...     1.00 cm^-1

Throughout the following assumptions are being made:
  (1) The electronic state is orbitally nondegenerate
  (2) There are no thermally accessible electronically excited states
  (3) Hindered rotations indicated by low frequency modes are not
      treated as such but are treated as vibrations and this may
      cause some error
  (4) All equations used are the standard statistical mechanics
      equations for an ideal gas
  (5) All vibrations are strictly harmonic

freq.    1339.88  E(vib)   ...       0.01 
freq.    1339.88  E(vib)   ...       0.01 
freq.    1339.89  E(vib)   ...       0.01 
freq.    1555.37  E(vib)   ...       0.00 
freq.    1555.37  E(vib)   ...       0.00 
freq.    3029.33  E(vib)   ...       0.00 
freq.    3131.36  E(vib)   ...       0.00 
freq.    3131.36  E(vib)   ...       0.00 
freq.    3131.37  E(vib)   ...       0.00 

------------
INNER ENERGY
------------

The inner energy is: U= E(el) + E(ZPE) + E(vib) + E(rot) + E(trans)
    E(el)   - is the total energy from the electronic structure calculation
              = E(kin-el) + E(nuc-el) + E(el-el) + E(nuc-nuc)
    E(ZPE)  - the the zero temperature vibrational energy from the frequency calculation
    E(vib)  - the the finite temperature correction to E(ZPE) due to population
              of excited vibrational states
    E(rot)  - is the rotational thermal energy
    E(trans)- is the translational thermal energy

Summary of contributions to the inner energy U:
Electronic energy                ...    -40.50306196 Eh
Zero point energy                ...      0.04454687 Eh      27.95 kcal/mol
Thermal vibrational correction   ...      0.00003636 Eh       0.02 kcal/mol
Thermal rotational correction    ...      0.00141627 Eh       0.89 kcal/mol
Thermal translational correction ...      0.00141627 Eh       0.89 kcal/mol
-----------------------------------------------------------------------
Total thermal energy                    -40.45564619 Eh


Summary of corrections to the electronic energy:
(perhaps to be used in another calculation)
Total thermal correction                  0.00286890 Eh       1.80 kcal/mol
Non-thermal (ZPE) correction              0.04454687 Eh      27.95 kcal/mol
-----------------------------------------------------------------------
Total correction                          0.04741577 Eh      29.75 kcal/mol


--------
ENTHALPY
--------

The enthalpy is H = U + kB*T
                kB is Boltzmann's constant
Total thermal energy              ...    -40.45564619 Eh 
Thermal Enthalpy correction       ...      0.00094421 Eh       0.59 kcal/mol
-----------------------------------------------------------------------
Total Enthalpy                    ...    -40.45470198 Eh


Note: Rotational entropy computed according to Herzberg 
Infrared and Raman Spectra, Chapter V,1, Van Nostrand Reinhold, 1945 
Point Group:  Td, Symmetry Number:  12  
Rotational constants in cm-1:     5.283348     5.283342     5.283342 

Vibrational entropy computed according to the QRRHO of S. Grimme
Chem.Eur.J. 2012 18 9955 using a reference frequency of 100.0 cm-1


-------
ENTROPY
-------

The entropy contributions are T*S = T*(S(el)+S(vib)+S(rot)+S(trans))
     S(el)   - electronic entropy
     S(vib)  - vibrational entropy
     S(rot)  - rotational entropy
     S(trans)- translational entropy
The entropies will be listed as multiplied by the temperature to get
units of energy

Electronic entropy                ...      0.00000000 Eh      0.00 kcal/mol
Vibrational entropy               ...      0.00004182 Eh      0.03 kcal/mol
Rotational entropy                ...      0.00480714 Eh      3.02 kcal/mol
Translational entropy             ...      0.01627961 Eh     10.22 kcal/mol
-----------------------------------------------------------------------
Final entropy term                ...      0.02112857 Eh     13.26 kcal/mol

In case the symmetry of your molecule has not been determined correctly
or in case you have a reason to use a different symmetry number we print 
out the resulting rotational entropy values for sn=1,12:

 non-linear molecules -----------------------------------
|  sn= 1 | S(rot)=       0.00715334 Eh      4.49 kcal/mol|
|  sn= 2 | S(rot)=       0.00649889 Eh      4.08 kcal/mol|
|  sn= 3 | S(rot)=       0.00611605 Eh      3.84 kcal/mol|
|  sn= 4 | S(rot)=       0.00584443 Eh      3.67 kcal/mol|
|  sn= 5 | S(rot)=       0.00563374 Eh      3.54 kcal/mol|
|  sn= 6 | S(rot)=       0.00546160 Eh      3.43 kcal/mol|
|  sn= 7 | S(rot)=       0.00531605 Eh      3.34 kcal/mol|
|  sn= 8 | S(rot)=       0.00518997 Eh      3.26 kcal/mol|
|  sn= 9 | S(rot)=       0.00507877 Eh      3.19 kcal/mol|
|  sn=10 | S(rot)=       0.00497929 Eh      3.12 kcal/mol|
|  sn=11 | S(rot)=       0.00488930 Eh      3.07 kcal/mol|
|  sn=12 | S(rot)=       0.00480714 Eh      3.02 kcal/mol|
 linear molecules ---------------------------------------
|  Dinfh | S(rot)=       0.00375416 Eh      2.36 kcal/mol|
|  Cinfv | S(rot)=       0.00440862 Eh      2.77 kcal/mol|
 --------------------------------------------------------


-------------------
GIBBS FREE ENERGY
-------------------

The Gibbs free energy is G = H - T*S

Total enthalpy                    ...    -40.45470198 Eh 
Total entropy correction          ...     -0.02112857 Eh    -13.26 kcal/mol
-----------------------------------------------------------------------
Final Gibbs free energy         ...    -40.47583055 Eh

For completeness - the Gibbs free energy minus the electronic energy
G-E(el)                           ...      0.02723141 Eh     17.09 kcal/mol

------------------------
VCD SPECTRUM CALCULATION
------------------------

Calculating the atomic axial tensor (analytic) ... done ( 0.003 sec)

---------------------------------
 Mode   Freq    VCD-Intensity    
       (1/cm) (1E-44*esu^2*cm^2) 
---------------------------------
    6  1339.9          0.00
    7  1339.9         -0.00
    8  1339.9         -0.00
    9  1555.4          0.00
   10  1555.4          0.00
   11  3029.3         -0.00
   12  3131.4          0.00
   13  3131.4         -0.00
   14  3131.4          0.00

Maximum memory used throughout the entire PROP-calculation: 26.0 MB

--------------------------------
SUGGESTED CITATIONS FOR THIS RUN
--------------------------------

Below you find a list of papers that are relevant to this ORCA run
We neither can nor want to force you to cite these papers, but we appreciate if you do
You receive ORCA, which is the product of decades of hard work by many enthusiastic individuals, for free
The only thing we kindly ask in return is that you cite our papers,
We deeply appreciate it, if you show your appreciation for ORCA by not just citing the generic ORCA reference.

Please note that relegating all ORCA citations to the supporting information does *not* help us.
SI sections are not indexed - citations you put there will not count into any citation statistics
But we need these citations in order to attract the funding resources that allow us to do what we are doing

Therefore, if you are a happy ORCA user, please consider citing a few of the papers listed below in the main body of your paper

In addition to the list printed below, the program has created the file CH4.bibtex that contains the list in bibtex format
You can import this file easily into all common literature databanks and citation aid programs


List of essential papers. We consider these as the minimum necessary citations

  1. Neese, F.
     Software update: the ORCA program system, version 6.0
     WIRES Comput. Molec. Sci. 2025 15(1), e70019
     doi.org/10.1002/wcms.7019

List of papers to cite with high priority. The work reported in these papers was absolutely
necessary for this run to complete.
Our perspective: the developers of density functionals and basis sets usually get cited in chemistry papers
Good! But without the algorithms to do something with them, the functionals or basis sets would not do anything.
Hence, in our opinion, the algorithm design and method developments papers are equally worthy of getting cited

  1. Neese, F.
     An improvement of the resolution of the identity approximation for the formation of the Coulomb matrix
     J. Comp. Chem. 2003 24(14), 1740-1747
     doi.org/10.1002/jcc.10318
  2. Neese, F.; Wennmohs, F.; Hansen, A.; Becker, U.
     Efficient, approximate and parallel Hartree-Fock and hybrid DFT calculations. A 'chain-of-spheres' algorithm for the Hartree-Fock exchange
     Chem. Phys. 2009 356(1-3), 98-109
     doi.org/10.1016/j.chemphys.2008.10.036
  3. Bykov, D.; Petrenko, T.; Izsak, R.; Kossmann, S.; Becker, U.; Valeev, E.; Neese, F.
     Efficient implementation of the analytic second derivatives of Hartree-Fock and hybrid DFT energies: a detailed analysis of different approximations
     Molec. Phys. 2015 113 , 1961-1977
     doi.org/10.1080/00268976.2015.1025114
  4. Schneider, W.B.; Bistoni, G.; Sparta, M.; Saitow, M.; Riplinger, C.; Auer, A.A.; Neese, F.
     Decomposition of Intermolecular Interaction Energies within the Local Pair Natural Orbital Coupled Cluster Framework
     J. Theo. Comp. Chem. 2016 12 , 4778-4792
     doi.org/10.1021/acs.jctc.6b00523
  5. Caldeweyher, E.; Bannwarth, C.; Grimme, S.
     Extension of the D3 dispersion coefficient model
     J. Chem. Phys. 2017 147 , 034112
     doi.org/10.1063/1.4993215
  6. Lehtola, S.; Steigemann, C.; Oliveira, M.; Marques, M.
     Recent developments in Libxc - A comprehensive library of functionals for density functional theory
     Software X 2018 7 , 
     doi.org/10.1016/j.softx.2017.11.002
  7. Caldeweyher, E.; Ehlert, S.; Hansen, A.; Neugebauer, H.; Spicher, S.; Bannwarth, C.; Grimme, S.
     A generally applicable atomic-charge dependent London dispersion correction
     J. Chem. Phys. 2019 150 , 154122
     doi.org/10.1063/1.5090222
  8. Caldeweyher, E.; Mewes, J.; Ehlert, S.; Grimme, S.
     Extension and evaluation of the D4 London-dispersion model for periodic systems
     Phys. Chem. Chem. Phys. 2020 22(16), 8499-8512
     doi.org/10.1039/D0CP00502A
  9. Helmich-Paris, B.; de Souza, B.; Neese, F.; Izsák, R.
     An improved chain of spheres for exchange algorithm
     J. Chem. Phys. 2021 155(10), 104109
     doi.org/10.1063/5.0058766
 10. Neese, F.
     The SHARK Integral Generation and Digestion System
     J. Comp. Chem. 2022 44(3), 381
     doi.org/10.1002/jcc.26942
 11. Wittmann, L.; Gordiy, I.; Friede, M.; Helmich-Paris, B.; Grimme, S.; Hansen, A.; Bursch, M.
     Extension of the D3 and D4 London Dispersion Corrections to the full Actinides Series
     Phys. Chem. Chem. Phys. 2024 26(32), 21379-21394
     doi.org/10.1039/D4CP01514B
 12. Petra, P.; Frank, N.
     Efficient calculation of analytic Raman intensities
     to be submitted 2025  , 

List of suggested additional citations. These are papers that are important in the 'surrounding' of 
of this run, or papers that preceded the highly important papers. If you like your results we are grateful for a citation.

  1. Izsak, R.; Neese, F.
     An overlap fitted chain of spheres exchange method
     J. Chem. Phys. 2011 135 , 144105
     doi.org/10.1063/1.3646921
  2. Izsak, R.; Hansen, A.; Neese, F.
     The resolution of identity and chain of spheres approximations for the LPNO-CCSD singles Fock term
     Molec. Phys. 2012 110 , 2413-2417
     doi.org/10.1080/00268976.2012.687466
  3. Neese, F.
     The ORCA program system
     WIRES Comput. Molec. Sci. 2012 2(1), 73-78
     doi.org/10.1002/wcms.81
  4. Izsak, R.; Neese, F.; Klopper, W.
     Robust fitting techniques in the chain of spheres approximation to the Fock exchange: The role of the complementary space
     J. Chem. Phys. 2013 139 , 
     doi.org/10.1063/1.4819264
  5. Neese, F.
     Software update: the ORCA program system, version 4.0
     WIRES Comput. Molec. Sci. 2018 8(1), 1-6
     doi.org/10.1002/wcms.1327
  6. Bistoni, G.
     Finding chemical concepts in the Hilbert space: Coupled cluster analyses of noncovalent interactions
     WIRES Comput. Molec. Sci. 2020 10(3), e1442
     doi.org/10.1002/wcms.1442
  7. Neese, F.; Wennmohs, F.; Becker, U.; Riplinger, C.
     The ORCA quantum chemistry program package
     J. Chem. Phys. 2020 152(22), 224108
     doi.org/10.1063/5.0004608
  8. Neese, F.
     Software update: The ORCA program system—Version 5.0
     WIRES Comput. Molec. Sci. 2022 12(1), e1606
     doi.org/10.1002/wcms.1606
  9. Altun, A.; Leach, I.F.; Neese, F.; Bistoni, G.
     A Generally Applicable Method for Disentangling the Effect of Individual Noncovalent Interactions on the Binding Energy
     Angew. Chem. Int. Ed. 2025 64(12), e202421922
     doi.org/10.1002/anie.202421922

List of optional additional citations

  1. Neese, F.
     Approximate second-order SCF convergence for spin unrestricted wavefunctions
     Chem. Phys. Lett. 2000 325(1-3), 93-98
     doi.org/10.1016/s0009-2614(00)00662-x

Timings for individual modules:

Sum of individual times          ...       49.892 sec (=   0.832 min)
Startup calculation              ...        1.170 sec (=   0.020 min)   2.3 %
SCF iterations                   ...        7.675 sec (=   0.128 min)  15.4 %
Property integrals               ...        7.482 sec (=   0.125 min)  15.0 %
SCF Response                     ...        1.535 sec (=   0.026 min)   3.1 %
Property calculations            ...       27.614 sec (=   0.460 min)  55.3 %
SCF Gradient evaluation          ...        4.406 sec (=   0.073 min)   8.8 %
Geometry relaxation              ...        0.010 sec (=   0.000 min)   0.0 %
                             ****ORCA TERMINATED NORMALLY****
TOTAL RUN TIME: 0 days 0 hours 0 minutes 50 seconds 196 msec
